# vtk DataFile Version 5.1
vtk output
ASCII
DATASET POLYDATA
POINTS 9366 double
24.500891138 62.58265159 0.35444731832 24.732808858 62.454982259 0.21088378518 24.429885365 62.576003705 0.20703204068 
24.217798263 62.53781521 0.099042005698 24.169822831 62.590109193 0.39178095841 23.907363292 62.51803336 0.19035056844 
24.726569198 62.366960165 -0.01167212477 24.510638566 62.475575153 0.026467491474 24.315537995 62.407362935 -0.094006148589 
23.630507654 62.366071097 0.10086175865 23.975999147 62.364318791 -0.072184296042 23.595863017 62.099272525 -0.15623671446 
24.611368324 62.224845828 -0.19046244118 24.248078889 62.198001419 -0.27177731572 23.935153338 62.105825592 -0.29529407486 
33.753815775 62.253792085 4.3685220117 33.979891979 62.348002953 4.3429443708 33.747587946 62.491212028 4.1251985462 
33.25030404 62.422034794 4.0329660633 33.4236323 62.063065335 4.3850207734 32.734921968 62.326257884 3.9739366665 
32.939764219 62.057584998 4.2445153776 32.260016417 62.244381194 3.9192445092 32.402057553 61.854688703 4.2279412269 
31.974032768 61.993459808 4.0420363984 34.138023266 62.54526623 4.180009124 34.449839006 62.620760478 4.1323763043 
34.206993453 62.763207909 3.8552669049 33.6351452 62.71643807 3.7473108989 33.082490178 62.628108536 3.6883380749 
32.557527657 62.513502632 3.6760287348 32.132499747 62.391217266 3.6889561217 31.577548816 61.793222862 4.0029944572 
31.805058607 62.153871009 3.8189774507 31.377198745 61.92686241 3.7652797308 35.193641654 62.815768113 3.9437003468 
35.471659547 62.825757231 3.9325831565 35.263392855 62.968572058 3.6446040192 34.668577542 62.96502056 3.5254236026 
34.813469689 62.781885874 3.9350540665 34.076712293 62.919244768 3.4250987086 33.483688456 62.83214069 3.349605604 
32.874069366 62.709798598 3.3333675173 32.275312589 62.529014672 3.4177679242 32.525334803 62.64512783 3.1801461613 
31.825564304 62.317185009 3.5548480945 31.580820173 62.158017477 3.6590497791 36.249362315 62.924015611 3.7612647724 
36.517376276 62.91720084 3.7464239797 36.314359472 63.049164684 3.4709561813 35.746554235 63.091541284 3.3344650399 
35.865342003 62.925668915 3.7477829351 35.154140407 63.097091602 3.2070408581 34.556287253 63.056138797 3.0865562894 
33.951871873 62.968369075 2.9872111688 33.325456906 62.835904271 2.9290763168 32.820812703 62.722440106 3.02207296 
32.894078663 62.673677756 2.7135533564 36.74971794 62.995010807 3.5603586272 37.110779379 62.967373073 3.5274795556 
36.892065125 63.084934445 3.2164905246 36.270417277 63.153789568 3.0485102824 35.667226512 63.171187526 2.9000824291 
35.06777382 63.140464714 2.7597310725 34.465831591 63.057620331 2.6299591156 33.850855178 62.923600096 2.5275489127 
33.30815379 62.774728046 2.5327684905 33.533091645 62.775014312 2.2652468195 38.547244597 62.800244819 3.3973132925 
38.80971779 62.750408955 3.3729528023 38.611148554 62.883871581 3.1247361578 38.047416095 62.9926468 3.0192289424 
38.189967758 62.857892059 3.3830625348 37.432457876 63.086908194 2.9112024934 37.569354196 62.967950779 3.3384606217 
36.810471981 63.157638145 2.7697082821 36.199590352 63.189801413 2.611983578 35.599558804 63.175206884 2.4553630725 
35.00567712 63.107585327 2.2998513942 34.407370926 62.979441949 2.1487543195 33.886944279 62.843481698 2.120763991 
34.101192721 62.81955467 1.8594764263 39.033768816 62.778272838 3.181198805 39.369851408 62.706235735 3.1121131602 
39.124326065 62.83048691 2.8629192681 38.558017425 62.947294679 2.7384495555 37.960964167 63.037295858 2.6186036935 
37.347345364 63.107992876 2.4874419385 36.735824878 63.151392279 2.3376229305 36.137484581 63.154944343 2.1736777077 
35.554717716 63.111805085 2.0049924572 34.986459909 63.014036204 1.8282934141 34.478476728 62.868685071 1.7066921009 
34.794766373 62.880648546 1.5027158563 26.583874212 61.800558382 2.0024666044 26.859318482 61.671257442 1.7835851663 
26.413148127 61.89626059 1.8285973019 26.026260597 62.058203873 1.7568986336 26.178259115 61.860625943 2.1613875754 
25.66046104 62.098081156 1.9638111768 39.583649503 62.70708864 2.9039835959 39.920224221 62.612782375 2.8165077152 
39.656753322 62.725976428 2.5808156056 39.093201446 62.841317605 2.4646487335 38.501498771 62.923232516 2.3386625902 
37.886552963 62.991250065 2.2116038848 37.268419097 63.047204133 2.0744201492 36.66720888 63.069435207 1.9128458094 
36.092689909 63.052819785 1.7352460026 35.544053297 62.997200003 1.5551812091 35.11548573 62.932262712 1.4664305263 
35.313343648 62.873203909 1.256607043 26.920957756 61.550510183 1.4268607003 26.409682696 61.889041921 1.4567857108 
25.969244192 62.122190597 1.5083182304 25.345946918 62.234348783 1.8463874394 25.513926157 62.254262605 1.5719781095 
24.94235725 62.432172025 1.3733236372 24.933041658 62.301128915 1.811224788 24.487161695 62.464426429 1.5614221023 
21.301483414 62.082748949 1.6240949238 21.626423687 62.223867139 1.6679361243 21.654888353 62.153233449 1.3309079599 
21.263274017 61.993273582 1.4329283061 40.116866443 62.590259831 2.5972303043 40.442056862 62.473844873 2.4832354038 
40.165681643 62.583260207 2.2847331764 39.637211388 62.688644172 2.1868440563 39.062349717 62.75237681 2.0675961415 
38.434125232 62.794933793 1.9320195129 37.794164032 62.861727104 1.8167293735 37.177543571 62.917692961 1.6809443246 
36.609874849 62.912884728 1.4866552763 36.057781094 62.893575303 1.2966669718 35.617891788 62.873134543 1.2059945177 
35.791902267 62.774321787 1.0100921075 26.755526757 61.560797942 1.1384760064 26.310049387 61.838266946 0.99358144653 
25.904590499 62.129217449 1.247109517 25.397499176 62.327046234 1.133074167 24.917599739 62.475295232 0.99703548399 
24.189543238 62.546559454 1.4433040749 24.357219664 62.560954212 1.1406216071 23.715857418 62.606218236 1.1079318018 
23.857196098 62.562439307 1.412750402 23.167829506 62.561159318 1.1093494831 23.339508801 62.543996181 1.422815224 
22.636931342 62.439232928 1.0901884342 22.778401201 62.475700774 1.4398329829 22.13675576 62.2488109 1.0374177163 
22.160723893 62.344643241 1.4627151738 21.74214278 62.049046554 0.99822251569 21.286010102 61.823292691 1.1675122287 
40.627120276 62.415941046 2.24008775 41.025753695 62.208249347 1.9754210379 40.556597099 62.431531238 2.0133581939 
40.177742374 62.505660794 1.9109877814 39.661317667 62.537904975 1.7958792486 39.034053357 62.549161649 1.6818840396 
38.30491936 62.529373103 1.4999924731 37.629348158 62.712378079 1.493847877 37.125570199 62.700321907 1.2979690709 
36.555642938 62.668486828 1.035665229 36.093950502 62.73361847 0.97375089039 36.208177224 62.617340938 0.82425655738 
26.133368318 61.779422278 0.60069313895 25.78646136 62.111996781 0.85871402081 25.265852207 62.326427166 0.72813958425 
24.645539132 62.517513294 0.62839644162 24.007604184 62.598434448 0.75693992306 23.505182153 62.589724345 0.83155390499 
23.066899171 62.491722036 0.77540372059 22.569149986 62.293031712 0.72641794989 22.050777473 61.957218986 0.64592984144 
21.600569297 61.842976709 0.84327995274 21.671178032 61.698995128 0.64801774537 41.253474951 62.079099213 1.526191344 
40.740129817 62.292284402 1.6814571235 40.316849448 62.303190014 1.5166184356 39.731987757 62.254561835 1.4123682831 
39.027865962 62.247764194 1.3614156455 39.515194405 61.94981469 1.1992240995 38.593589857 62.236872262 1.2856291559 
38.239075978 62.096456964 1.1294789497 37.691839008 62.407342563 1.1861589096 37.143464636 62.392666028 0.94627749802 
36.737834476 62.403232784 0.75382076825 36.332130557 62.399334132 0.61570720663 26.018703076 61.629530127 0.23990701053 
25.660218641 62.02398634 0.45516343153 25.160225624 62.246374958 0.32893839058 23.552443113 62.493448392 0.45480062158 
22.995695723 62.336567885 0.47784165539 22.609622593 62.059427571 0.36435677454 22.239412824 61.718531207 0.2787325869 
21.747813646 61.362417969 0.37602087935 41.398892688 61.995387628 1.2487062574 41.03595081 62.063069318 1.2061628135 
40.514705946 62.00569306 1.1067425043 40.021364595 61.909842293 1.1172265669 40.403559641 61.711174464 0.92805316886 
37.659429277 61.886737167 0.78850028223 36.990925887 62.120574755 0.61222936796 36.646737502 62.24335304 0.55115523783 
25.991262086 61.406556102 -0.042874026785 25.566741172 61.788181197 0.0071403267794 25.016963333 62.125804087 -0.05022353852 
23.167289834 62.133242543 0.12622686043 22.668450868 61.671814165 -0.0056776581406 22.171306498 61.3186238 0.046584666642 
22.437930955 61.14446707 -0.20845329691 41.54024218 61.894947441 1.0347408632 41.957445796 61.61929663 0.71414878138 
41.500066837 61.842683382 0.81125314542 41.210613957 61.788844405 0.69309675169 40.802630745 61.69512941 0.76510461493 
41.115846653 61.527995725 0.51488402096 25.848898109 61.305728471 -0.25671223229 25.560329788 61.389382531 -0.37465864838 
25.259809034 61.72248768 -0.28755946626 24.894976434 61.825708422 -0.37924148447 24.492377084 61.90712492 -0.44059473331 
24.126642695 61.903457542 -0.46089758906 23.742367168 61.737763754 -0.45543126615 23.210177422 61.666172634 -0.27840068067 
22.797867272 61.277568016 -0.3171593454 42.115478376 61.465910261 0.2160698923 41.734776207 61.673928943 0.45037498757 
41.642666355 61.591285333 0.23346972032 41.405503185 61.534497344 0.32253374538 25.206456486 61.264124175 -0.60282136537 
24.718721188 61.474447717 -0.6319094192 24.299756077 61.562313994 -0.63360956022 24.023754761 61.632473735 -0.59054249045 
42.222093795 61.328257498 -0.15112915491 41.948325407 61.519526776 0.058813411496 41.863036932 61.467198328 -0.06452567097 
41.691610819 61.320177907 -0.02450589196 42.275019286 61.20419303 -0.39240258867 42.079835393 61.369824837 -0.25652075045 
41.93879982 61.346426823 -0.24561986647 42.078522949 61.26182669 -0.40184394825 42.204836835 61.200235902 -0.46371069158 
35.143245383 61.050705567 5.1967548912 35.424133863 61.194768114 5.1719841214 35.099406892 61.616017538 4.8964497437 
34.504880418 61.779587947 4.7322608988 34.69304599 61.188132303 5.0499660552 33.9385353 61.961987647 4.5697560821 
[...]
CELL_DATA 18728
FIELD FieldData 2
plab 7 18728 double
0.62251023509 0.00077581801326 0.0007755586422 0.064013027806 0.30995764868 0.0011921531257 0.0007755586422 0.66243569225 0.00078338434103 
0.00078312606582 0.066286898178 0.26793032382 0.00099744928301 0.00078312606582 0.64914477958 0.00078679394669 0.00078662176322 0.087698606006 
0.25959567791 0.001200899028 0.00078662176322 0.64225905599 0.00080119630017 0.00080111020844 0.11544812968 0.23847572359 0.0014136740135 
0.00080111020844 0.5928308577 0.00076827515584 0.00076810187652 0.079437286998 0.32404272598 0.0013846504076 0.00076810187652 0.55511486157 
0.00076955722217 0.00076947003458 0.084632828564 0.35593867889 0.0020051336897 0.00076947003458 0.60836754837 0.00076271747637 0.00076263138464 
0.098853266268 0.28911434242 0.0013768626971 0.00076263138464 0.5688110542 0.00077200768901 0.00077200768901 0.12124839052 0.30603828057 
0.0015862516444 0.00077200768901 0.55113223565 0.00079828276236 0.00079828276236 0.15724172637 0.28773217646 0.0014990132371 0.00079828276236 
0.58380300624 0.0008033949032 0.0008033949032 0.1625961258 0.24968828398 0.0015023992752 0.0008033949032 0.56162287381 0.00081046007382 
0.00081046007382 0.2070678367 0.22760584847 0.0012720607979 0.00081046007382 0.48469803348 0.000838573128 0.000838573128 0.28013176087 
0.23128927424 0.0013652120295 0.000838573128 0.5243037881 0.00079663588049 0.00079663588049 0.09891449784 0.37217824435 0.0022135620674 
0.00079663588049 0.49008280882 0.00085036250253 0.00085036250253 0.14451514481 0.36093472981 0.0019162290563 0.00085036250253 0.52246329006 
0.0008046440268 0.0008046440268 0.11611408052 0.3572062296 0.0018024677327 0.0008046440268 0.4540062546 0.00085959303281 0.00085959303281 
0.24400852996 0.29770941562 0.0016970207195 0.00085959303281 0.50236328969 0.00083304877501 0.00083304877501 0.17965534202 0.31388039987 
0.0016018220977 0.00083304877501 0.43049289348 0.00086565526214 0.00086565526214 0.30365697479 0.26155475517 0.001698410771 0.00086565526214 
0.97199408823 0.00073401573593 0.00073401573593 0.021456416023 0.00073401573593 0.0036134328073 0.00073401573593 0.9715277792 0.00076183201864 
0.00076183201864 0.021489715848 0.00076183201864 0.0039351768749 0.00076183201864 0.97109065311 0.00076061273156 0.00076061273156 0.02148849656 
0.00076091802789 0.004378094106 0.00076061273156 0.97005237811 0.0007854208574 0.0007854208574 0.021507821144 0.00078610220934 0.0052974359615 
0.0007854208574 0.96834740966 0.00076078163993 0.00076078163993 0.021477698384 0.00082875147523 0.0070637955572 0.00076078163993 0.96766244998 
0.00078031128968 0.00078031128968 0.021492701145 0.00085163835282 0.0076522766509 0.00078031128968 0.96697512681 0.00075661001549 0.00075661001549 
0.021468999871 0.00095920505448 0.0083268382188 0.00075661001549 0.96651550749 0.00077162218577 0.00077162218577 0.021490792336 0.0011223010989 
0.0085565325146 0.00077162218577 0.97251379165 0.00075343742489 0.00075343742489 0.021466783934 0.00075343742489 0.0030056747192 0.00075343742489 
0.97066269813 0.00079870575821 0.00079870575821 0.021521106045 0.00079905139892 0.0046210271467 0.00079870575821 0.97215326057 0.00075304049935 
0.00075304049935 0.021470913897 0.00075304049935 0.0033636635326 0.00075304049935 0.97254496988 0.00071198970082 0.00071198970082 0.021429863099 
0.00071198970082 0.0031772082161 0.00071198970082 0.97015158492 0.00077246547805 0.00077246547805 0.021500349307 0.00077311641509 0.0052575529266 
0.00077246547805 0.96722181965 0.00079296424131 0.00079296424131 0.02152084807 0.00081982348048 0.0080586160715 0.00079296424131 0.9664559194 
0.00075647227736 0.00075647227736 0.021478872564 0.00085027435917 0.0089455168466 0.00075647227736 0.95585355852 0.00079277430278 0.00079277430278 
0.021503640233 0.0014154632155 0.018849015119 0.00079277430278 0.95705772562 0.00077338239115 0.00077338239115 0.021478764779 0.0015015070332 
0.017641855397 0.00077338239115 0.93988609391 0.00080373806208 0.00080373806208 0.021488921345 0.0032739255944 0.032939844963 0.00080373806208 
0.94286017815 0.00078639694424 0.00078639694424 0.021478587694 0.0039356695888 0.029366373734 0.00078639694424 0.95957219054 0.0007710534436 
0.0007710534436 0.021490223594 0.0023263470721 0.014298078464 0.0007710534436 0.95633483592 0.00080170388724 0.00080170388724 0.021532767682 
0.0037898673142 0.01593741742 0.00080170388724 0.94031423694 0.00082906163552 0.00082906163552 0.021558491713 0.0089883932477 0.026651693197 
0.00082906163552 0.9735761169 0.00070037664383 0.00070037664383 0.021405938761 0.00070037664383 0.0022164377656 0.00070037664383 0.97394831635 
0.0006940282625 0.0006940282625 0.021408331425 0.0006940282625 0.0018672391726 0.0006940282625 0.97350553483 0.00073210689672 0.00073210689672 
0.021446410059 0.00073210689672 0.0021196275272 0.00073210689672 0.97072815786 0.00084403921763 0.00084403921763 0.021561912616 0.00084403921763 
0.0043337726523 0.00084403921763 0.97257720818 0.00077848684871 0.00077848684871 0.021491833358 0.00077848684871 0.0028170110649 0.00077848684871 
0.97251322698 0.00075199659505 0.00075199659505 0.021465343104 0.00075199659505 0.0030134435313 0.00075199659505 0.96914333553 0.00085232575373 
0.00085232575373 0.02157472604 0.00085267139443 0.0058722897781 0.00085232575373 0.96278301254 0.0009063233875 0.0009063233875 0.021634207216 
0.00090779274188 0.011956017339 0.0009063233875 0.96137260989 0.00087320215524 0.00087320215524 0.021601085984 0.00090087981176 0.013505817852 
0.00087320215524 0.94000302999 0.00092435370053 0.00092435370053 0.021652237529 0.00098260170819 0.034589069673 0.00092435370053 0.93524987888 
0.00088041781201 0.00088041781201 0.021596767284 0.0014667342332 0.039045366164 0.00088041781201 0.90439981673 0.00095543336045 0.00095543336045 
0.021660248476 0.0031637485118 0.067909886202 0.00095543336045 0.87378121485 0.0010001271827 0.0010001271827 0.021702978137 0.0028631158388 
0.098652309626 0.0010001271827 0.88397795463 0.00095409099842 0.00095409099842 0.021613829715 0.0090844000366 0.082461542619 0.00095409099842 
0.90783186467 0.00089814552214 0.00089814552214 0.02157727799 0.0048848960553 0.063011524722 0.00089814552214 0.90166878442 0.00091179579891 
0.00091179579891 0.021599697742 0.011485064762 0.062511065676 0.00091179579891 0.90947175004 0.00088785279875 0.00088785279875 0.021554598983 
0.008578232044 0.057731860533 0.00088785279875 0.91837638208 0.00085028476267 0.00085028476267 0.021568777849 0.012137343636 0.045366642147 
0.00085028476267 0.96890438402 0.00083009357768 0.00083009357768 0.021522046839 0.00083009357768 0.0062531948301 0.00083009357768 0.96973233429 
0.00080507416181 0.00080507416181 0.021495090805 0.00080507416181 0.0055522782584 0.00080507416181 0.96936825144 0.00084900283244 0.00084900283244 
0.021537082858 0.00084900283244 0.0056986543741 0.00084900283244 0.97067693907 0.00094729830461 0.00094729830461 0.021652860421 0.00094729830461 
0.0038810072878 0.00094729830461 0.97133042236 0.00078553236641 0.00078553236641 0.021482353437 0.00078553236641 0.0040450947355 0.00078553236641 
0.97252059654 0.00072046213565 0.00072046213565 0.021417283207 0.00072046213565 0.0031802717153 0.00072046213565 0.97233413726 0.00091469924513 
0.00091469924513 0.021629002408 0.00091469924513 0.0023780633508 0.00091469924513 0.96955870079 0.0011306505191 0.0011306505191 0.021844953682 
0.0011306505191 0.0040737434528 0.0011306505191 0.96888104803 0.0010136105396 0.0010136105396 0.021732440591 0.0010136105396 0.0053320692166 
0.0010136105396 0.95927601121 0.0012467476921 0.0012467476921 0.021970104632 0.0012467476921 0.013766893389 0.0012467476921 0.95476279805 
0.001131174004 0.001131174004 0.021859057833 0.0011322977176 0.018852324386 0.001131174004 0.91337482584 0.0012433707377 0.0012433707377 
0.021971254567 0.0012497677214 0.059674039661 0.0012433707377 0.90002546043 0.0010696716665 0.0010696716665 0.021797555495 0.0011069846421 
0.073860984435 0.0010696716665 0.84876801089 0.0011379490035 0.0011379490035 0.02185934392 0.0012541704888 0.12470462769 0.0011379490035 
0.79251975155 0.0011848591913 0.0011848591913 0.02189275559 0.0012793105755 0.18075360471 0.0011848591913 0.84979662758 0.0010634433264 
0.0010634433264 0.021771339725 0.0013582571736 0.12388344554 0.0010634433264 0.96587664148 0.00096009205291 0.00096009205291 0.02164742503 
0.00096009205291 0.0086355652778 0.00096009205291 0.96424435861 0.001079608277 0.001079608277 0.02176962492 0.001079608277 0.0096675833586 
0.001079608277 0.96622636917 0.0009506134951 0.0009506134951 0.021642566757 0.0009506134951 0.0083286100926 0.0009506134951 0.96827442564 
0.00087509860109 0.00087509860109 0.021567051863 0.00087509860109 0.0066581280948 0.00087509860109 0.966075906 0.001029666169 0.001029666169 
0.021717746194 0.001029666169 0.008087683131 0.001029666169 0.96428733558 0.0011847771374 0.0011847771374 0.021881598208 0.0011847771374 
0.0090919576598 0.0011847771374 0.96692619773 0.0011658797391 0.0011658797391 0.021871441856 0.0011658797391 0.0065388414553 0.0011658797391 
0.9607101601 0.001405495135 0.001405495135 0.022119798298 0.001405495135 0.011548061063 0.001405495135 0.96168546497 0.0014028649744 
0.0014028649744 0.022117168137 0.0014028649744 0.010585906998 0.0014028649744 0.94098659189 0.0015169315872 0.0015169315872 0.022230278096 
0.0015169315872 0.030715403661 0.0015169315872 0.93925479089 0.0014778542844 0.0014778542844 0.022195727682 0.0014778542844 0.032638064289 
0.0014778542844 0.88576010133 0.0015424370439 0.0015424370439 0.022264837331 0.0015424440377 0.085805306166 0.0015424370439 0.86439334944 
0.0014235271853 0.0014235271853 0.022151411014 0.0014288074492 0.10775585054 0.0014235271853 0.80856078632 0.0014320271015 0.0014320271015 
0.02215991093 0.0014391352987 0.16354408614 0.0014320271015 0.7636011629 0.0015197677565 0.0015197677565 0.022247651585 0.0015216097879 
0.20807027246 0.0015197677565 0.78527107857 0.0012945529839 0.0012945529839 0.022008938295 0.001310800078 0.18752552411 0.0012945529839 
0.95725750668 0.0010441662328 0.0010441662328 0.021697529627 0.0010441662328 0.016868298761 0.0010441662328 0.95731763731 0.0010645304937 
0.0010645304937 0.02172191538 0.0010645304937 0.016702325336 0.0010645304937 0.9559471382 0.0012092010636 0.0012092010636 0.02186658595 
0.0012092010636 0.017349471596 0.0012092010636 0.95877981277 0.0011554185107 0.0011554185107 0.021818414825 0.0011554185107 0.014780098363 
0.0011554185107 0.95671900983 0.0012767071966 0.0012767071966 0.021951871842 0.0012767071966 0.016222289537 0.0012767071966 0.9544640345 
0.0013374146921 0.0013374146921 0.022029367954 0.0013374146921 0.018156938781 0.0013374146921 0.95933894942 0.0011669025952 0.0011669025952 
0.021854235572 0.0011669025952 0.014139204624 0.0011669025952 0.96450847019 0.0010038501352 0.0010038501352 0.021684626209 0.0010038501352 
0.0097915030601 0.0010038501352 0.95768319738 0.0013007950489 0.0013007950489 0.021990811692 0.0013007950489 0.015122810729 0.0013007950489 
0.9523660288 0.0015320015359 0.0015320015359 0.022220081561 0.0015320015359 0.019285883491 0.0015320015359 0.95713861962 0.0014659257324 
0.0014659257324 0.022162746803 0.0014659257324 0.01483493065 0.0014659257324 0.94465033741 0.0017037492361 0.0017037492361 0.022409311353 
0.0017037492361 0.026125354295 0.0017037492361 0.94558301574 0.0016622160369 0.0016622160369 0.0223765192 0.0016622160369 0.025391600912 
0.0016622160369 0.92398626455 0.001897943245 0.001897943245 0.022612246408 0.001897943245 0.045809716063 0.001897943245 0.91841453583 
0.0017552889559 0.0017552889559 0.022468635465 0.0017552889559 0.052095672877 0.0017552889559 0.86884994038 0.0018520924143 0.0018520924143 
0.022569965812 0.0018520924143 0.10117172415 0.0018520924143 0.83792730688 0.0016783178051 0.0016783178051 0.022400718092 0.0016783247989 
0.13295869682 0.0016783178051 0.77760594986 0.0017453807007 0.0017453807007 0.02247326453 0.001745394594 0.19293924891 0.0017453807007 
0.75605077112 0.0018646634996 0.0018646634996 0.022592547328 0.0018646703991 0.21389802065 0.0018646634996 0.74675231063 0.001603032992 
0.001603032992 0.022330916821 0.0016030539895 0.22450461959 0.001603032992 0.95231117658 0.0011876861384 0.0011876861384 0.021837028039 
0.0011876861384 0.021101050832 0.0011876861384 0.94959439303 0.0014184132428 0.0014184132428 0.022075798129 0.0014184132428 0.022656155869 
0.0014184132428 0.95257933006 0.0012303848364 0.0012303848364 0.02188374823 0.0012303848364 0.020615382366 0.0012303848364 0.95569360084 
0.0010917391563 0.0010917391563 0.021741081057 0.0010917391563 0.018198361479 0.0010917391563 0.9517235535 0.0014144764409 0.0014144764409 
0.022071861328 0.0014144764409 0.020546679405 0.0014144764409 0.94556478836 0.001595830541 0.001595830541 0.022258826855 0.001595830541 
0.025793062618 0.001595830541 0.94772757012 0.0015118438495 0.0015118438495 0.022187008495 0.0015118438495 0.024038045982 0.0015118438495 
0.93653825266 0.0016915393363 0.0016915393363 0.022376935695 0.0016915393363 0.034318654303 0.0016915393363 0.94065477744 0.0016269147803 
0.0016269147803 0.022316931424 0.0016269147803 0.030520632015 0.0016269147803 0.92459607365 0.0019140906545 0.0019140906545 0.02260217068 
0.0019140906545 0.045145393052 0.0019140906545 0.93308816213 0.0018557970533 0.0018557970533 0.022543877078 0.0018557970533 0.036944772581 
0.0018557970533 0.90902214054 0.0021568324166 0.0021568324166 0.022844912442 0.0021568324166 0.059505617349 0.0021568324166 0.91581172501 
0.0020708604028 0.0020708604028 0.022767681474 0.0020708604028 0.053137151905 0.0020708604028 0.88635979077 0.0023331295877 0.0023331295877 
0.023038691705 0.0023331295877 0.081268999171 0.0023331295877 0.89360165198 0.0022017456291 0.0022017456291 0.022916048792 0.0022017456291 
0.074675316711 0.0022017456291 0.85996427624 0.0023840215754 0.0023840215754 0.023097368085 0.0023840215754 0.10740226938 0.0023840215754 
0.84078429334 0.0021770226498 0.0021770226498 0.022894896048 0.0021770226498 0.12761272001 0.0021770226498 0.78723524665 0.0022014908769 
0.0022014908769 0.022923891164 0.0022014908769 0.18103489868 0.0022014908769 0.77187832225 0.0023569137317 0.0023569137317 0.023073830476 
0.0023569137317 0.19562019235 0.0023569137317 0.75979785633 0.0019818264186 0.0019818264186 0.022709710247 0.0019818264186 0.20956512775 
0.0019818264186 0.52934790677 0.0049940904547 0.001157681167 0.011535385484 0.45049243423 0.0013148207239 0.001157681167 0.66408771065 
0.0081612603427 0.0011357540038 0.0088008782186 0.31549480372 0.001183839061 0.0011357540038 0.69445044634 0.0083381275756 0.0011447162594 
0.010647955437 0.28310442924 0.0011696088839 0.0011447162594 0.77934221881 0.011768810125 0.001081644054 0.01441002964 0.1912132298 
0.0011024235237 0.001081644054 0.95222836625 0.0012403063831 0.0012403063831 0.021885626791 0.0012403063831 0.020924781428 0.0012403063831 
0.94436437416 0.0015718865484 0.0015718865484 0.022225249942 0.0015718865484 0.027122829705 0.0015718865484 0.94918052656 0.0013496042706 
0.0013496042706 0.021998946172 0.0013496042706 0.023422110185 0.0013496042706 0.95117826123 0.0012176966429 0.0012176966429 0.021867038544 
0.0012176966429 0.022083913656 0.0012176966429 0.94346715297 0.0016347381001 0.0016347381001 0.022292122987 0.0016347381001 0.027701771647 
0.0016347381001 0.93439905019 0.0018621688183 0.0018621688183 0.022519553705 0.0018621688183 0.035632720832 0.0018621688183 0.93436752512 
0.001827198061 0.001827198061 0.022490194376 0.001827198061 0.035833488265 0.001827198061 0.91677999796 0.0019562157647 0.0019562157647 
0.02263138041 0.0019562157647 0.05276375857 0.0019562157647 0.91678794374 0.0019045437315 0.0019045437315 0.02258994009 0.0019045437315 
0.053003941243 0.0019045437315 0.88857945022 0.0020806487163 0.0020806487163 0.02277066536 0.0020806487163 0.080327289553 0.0020806487163 
0.89227105535 0.0021548201954 0.0021548201954 0.02284290022 0.0021548201954 0.076266763652 0.0021548201954 0.84520652041 0.0024087893885 
0.0024087893885 0.023096869414 0.0024087893885 0.12206145262 0.0024087893885 0.85346551713 0.002469095211 0.002469095211 0.023157175236 
0.002469095211 0.11350092679 0.002469095211 0.80231620808 0.002614873936 0.002614873936 0.023311695007 0.002614873936 0.16391260117 
0.002614873936 0.82842089725 0.0025648803266 0.0025648803266 0.023270442443 0.0025648803266 0.138049139 0.0025648803266 0.78917924138 
0.0024999172713 0.0024999172713 0.023214220434 0.0024999172713 0.1776068691 0.0024999172713 0.81348075916 0.0024504424788 0.0024504424788 
0.023163788988 0.0024504424788 0.15355368194 0.0024504424788 0.78020557488 0.0023205590896 0.0023205590896 0.023032948945 0.0023205590896 
0.18747923981 0.0023205590896 0.75599006912 0.0022048178415 0.0022048178415 0.022917207697 0.0022048178415 0.21227345182 0.0022048178415 
0.77888465659 0.0023609819586 0.0023609819586 0.023072415161 0.0023609819586 0.18859900041 0.0023609819586 0.46311972115 0.0032267534715 
0.0011613709123 0.017141938565 0.51266121552 0.0015276294712 0.0011613709123 0.33495976506 0.0013018556423 0.0011360421927 0.020887643935 
0.63492891995 0.0056497310267 0.0011360421927 0.56533839523 0.005250892023 0.0011428397121 0.014126567603 0.41158831226 0.0014101534646 
0.0011428397121 0.56288674694 0.0054287304971 0.0011503013366 0.017665967159 0.41029682627 0.0014211264615 0.0011503013366 0.68258168888 
0.0073105275609 0.0011268219677 0.017503062556 0.28918702051 0.0011640565633 0.0011268219677 0.76992510963 0.010563371636 0.0010562881378 
0.017725737204 0.19858730705 0.0010858982062 0.0010562881378 0.82355729421 0.013301204583 0.00098943905671 0.021501599662 0.1386454535 
0.001015569937 0.00098943905671 0.83592401236 0.013828753112 0.00097427105923 0.021503996794 0.1258022706 0.00099242501063 0.00097427105923 
0.81314634507 0.010865184794 0.0010225610317 0.021523378396 0.15138084813 0.0010391215418 0.0010225610317 0.84767335363 0.011429848289 
0.00099537693829 0.021707081138 0.11619681721 0.0010021458555 0.00099537693829 0.63509275509 0.0022774393549 0.00096007489271 0.31744349775 
0.042306083129 0.00096007489271 0.00096007489271 0.53029284719 0.0010544879164 0.00099005887797 0.42719160798 0.038490880273 0.00099005887797 
0.00099005887797 0.95825696448 0.0011857903186 0.0011857903186 0.021831110727 0.0011857903186 0.01516876352 0.0011857903186 0.94495879533 
0.0015515529458 0.0015515529458 0.022200894847 0.0015515529458 0.026634098044 0.0015515529458 0.95373094644 0.0013269723513 0.0013269723513 
0.021972292759 0.0013269723513 0.018988871394 0.0013269723513 0.95409932219 0.0012300557186 0.0012300557186 0.021875376127 0.0012300557186 
0.019105078806 0.0012300557186 0.93826601738 0.0017151925347 0.0017151925347 0.022368555928 0.0017151925347 0.032504656552 0.0017151925347 
0.92087833315 0.0019803265957 0.0019803265957 0.022637711482 0.0019803265957 0.048562648982 0.0019803265957 0.91790858716 0.0020644513277 
0.0020644513277 0.022721836214 0.0020644513277 0.051111771319 0.0020644513277 0.88590708175 0.0024588405565 0.0024588405565 0.023113345587 
0.0024588405565 0.081144210434 0.0024588405565 0.88481001763 0.0023855757508 0.0023855757508 0.023052249113 0.0023855757508 0.082595430251 
0.0023855757508 0.83409242021 0.0025683763722 0.0025683763722 0.023245281447 0.0025683763722 0.13238879286 0.0025683763722 0.83785390702 
0.0023151213709 0.0023151213709 0.023005138014 0.0023151213709 0.12988046949 0.0023151213709 0.75924617428 0.0024646293621 0.0024646293621 
0.023152709387 0.0024646293621 0.20774259888 0.0024646293621 0.76290718255 0.0024841259007 0.0024841259007 0.023172205926 0.0024841259007 
0.20398410792 0.0024841259007 0.68231084647 0.0027360561909 0.0027360561909 0.023424136216 0.0027360561909 0.28332079255 0.0027360561909 
0.71346087527 0.0028064984037 0.0028064984037 0.023503319475 0.0028064984037 0.25180981164 0.0028064984037 0.67922814185 0.0027723027998 
0.0027723027998 0.023477864917 0.0027723027998 0.28620478203 0.0027723027998 0.72884181879 0.0025157152769 0.0025157152769 0.02323001844 