# vtk DataFile Version 5.1
vtk output
ASCII
DATASET POLYDATA
POINTS 9366 double
24.500846616 62.582664682 0.35444741391 24.732847754 62.454954478 0.21088368595 24.42987195 62.576051446 0.20703223915 
24.217839865 62.537825527 0.099042492527 24.169839059 62.590068796 0.39178032589 23.907418041 62.518072824 0.19035062799 
24.726576665 62.36699 -0.011671978574 24.510587605 62.475535229 0.026467740024 24.315566289 62.407390241 -0.094006326926 
23.63050484 62.366063754 0.10086141038 23.975965985 62.364330504 -0.072184140401 23.59589434 62.099245665 -0.15623676679 
24.611362537 62.224877272 -0.19046198009 24.248066769 62.197949092 -0.27177717044 23.935118444 62.105791402 -0.29529385254 
33.753776174 62.253750782 4.368521918 33.97991833 62.348045852 4.3429487729 33.747598552 62.491156928 4.1252031328 
33.25035322 62.422044178 4.0329708171 33.423656863 62.063077714 4.3850236512 32.734924943 62.326219094 3.973936781 
32.939737659 62.057603588 4.2445176053 32.260021285 62.244342174 3.9192448597 32.40201114 61.854702015 4.2279446479 
31.974059385 61.99342583 4.0420374605 34.138064978 62.545245785 4.1800116455 34.449806871 62.620749012 4.1323758204 
34.207014116 62.763251525 3.8552627313 33.635110145 62.716450011 3.7473116828 33.082514954 62.628059412 3.6883386145 
32.557556058 62.513499181 3.6760289371 32.132498669 62.391255815 3.6889591042 31.577547946 61.793199922 4.00299081 
31.805047351 62.153841644 3.8189742695 31.377240454 61.926841973 3.7652796296 35.193677687 62.815748353 3.9437045444 
35.471638558 62.825805893 3.9325833273 35.263400321 62.968601895 3.6446036289 34.668538752 62.96501759 3.5254221974 
34.813514214 62.781872771 3.9350573236 34.076670473 62.919295969 3.4250958065 33.483642203 62.832107875 3.3496074501 
32.874022946 62.709811935 3.3333630705 32.275281377 62.529010768 3.4177712778 32.525333772 62.645151024 3.1801419432 
31.82557669 62.317160454 3.5548460993 31.580835323 62.158015629 3.659052144 36.249390558 62.924058281 3.7612686953 
36.517333703 62.917198314 3.7464275862 36.314393447 63.049191301 3.4709559957 35.746538169 63.091535545 3.3344669437 
35.865378844 62.925687497 3.7477827219 35.154092202 63.097074411 3.2070372712 34.556310085 63.05610527 3.0865602174 
33.951854831 62.968371151 2.9872092831 33.325468215 62.835918261 2.9290787346 32.820843161 62.722390287 3.0220751612 
32.894092728 62.67371448 2.7135515513 36.74969316 62.995059942 3.5603542729 37.110747134 62.967392371 3.5274760685 
36.892044461 63.084890835 3.2164927909 36.270386879 63.153823989 3.0485147087 35.667270224 63.171136097 2.9000848519 
35.067747307 63.140467948 2.7597265763 34.465815629 63.057583849 2.62995687 33.85085534 62.92355396 2.5275499604 
33.308190848 62.77468511 2.5327709458 33.533074497 62.775047135 2.265247295 38.547276838 62.800225535 3.3973120113 
38.809683814 62.750382345 3.3729508421 38.611166673 62.883830963 3.1247329152 38.047369729 62.992644759 3.0192244475 
38.189981878 62.857913399 3.3830628274 37.43246074 63.08690017 2.9111991279 37.569402507 62.96793722 3.3384624435 
36.81044466 63.157603037 2.76970772 36.199561896 63.189820244 2.6119822318 35.599580709 63.175165807 2.4553593482 
35.005627997 63.107560554 2.2998504069 34.407383313 62.979417392 2.1487529204 33.886968027 62.84345576 2.120762935 
34.101163399 62.819550546 1.8594762012 39.033798187 62.778261598 3.1811946905 39.369829712 62.706215319 3.1121112084 
39.124362798 62.830536251 2.8629179591 38.558040249 62.94726118 2.738444662 37.960977474 63.037278872 2.6186031516 
37.347383344 63.107957509 2.4874458471 36.735799287 63.151403085 2.337618934 36.137457961 63.154978333 2.1736728309 
35.554693258 63.111761957 2.0049879335 34.986500642 63.014023583 1.8282895235 34.478466399 62.868663257 1.7066963335 
34.79475133 62.880619643 1.5027119647 26.583853275 61.800591673 2.0024648198 26.859324217 61.671241372 1.7835860646 
26.413131193 61.896231906 1.8285967505 26.026231384 62.05816899 1.7569001003 26.178218483 61.860607833 2.161383502 
25.660492251 62.098085063 1.9638069888 39.583663836 62.70704848 2.9039810734 39.920234662 62.612773422 2.8165076779 
39.656740937 62.726000978 2.5808192697 39.093165414 62.841337365 2.4646447743 38.501514027 62.923199917 2.3386639052 
37.886566268 62.99123309 2.2115998859 37.268391672 63.047199767 2.0744238556 36.667256056 63.069475586 1.9128469664 
36.092656638 63.052862257 1.7352447345 35.544003145 62.997198419 1.5551779111 35.115463822 62.9323038 1.4664305551 
35.313348248 62.873241778 1.2566069785 26.92093871 61.550543251 1.4268565291 26.409676095 61.889035041 1.4567846223 
25.969223253 62.122223893 1.5083144192 25.345971642 62.234315033 1.8463889807 25.513967708 62.254288289 1.5719819674 
24.942371534 62.432147227 1.3733259312 24.933047334 62.30112824 1.8112201316 24.487154173 62.464411977 1.5614202757 
21.301436189 62.082723931 1.6240989409 21.626455059 62.223824917 1.6679310767 21.654909072 62.15326168 1.3309061223 
21.263251298 61.993276334 1.4329306 40.116831549 62.590225644 2.5972295134 40.442057678 62.473883192 2.4832383839 
40.165690138 62.583266855 2.2847350969 39.637230431 62.688611116 2.1868446512 39.062363945 62.752367396 2.067596457 
38.434165158 62.794882824 1.9320219405 37.79418102 62.861740408 1.8167303535 37.177544381 62.9177313 1.6809409867 
36.609919476 62.912840888 1.4866524768 36.057774544 62.893553052 1.2966636895 35.617913482 62.873154965 1.2059943237 
35.79191444 62.774358735 1.0100922121 26.755501169 61.560808736 1.1384759438 26.310064534 61.838265107 0.99358106963 
25.904590392 62.129248202 1.2471100901 25.397502803 62.327091906 1.133074545 24.917602444 62.475333332 0.99703512383 
24.189498718 62.546572538 1.4433070166 24.357183581 62.560989337 1.1406213915 23.715838376 62.606251291 1.1079316837 
23.857148713 62.562460418 1.4127553979 23.167787797 62.561179754 1.1093495843 23.33950507 62.543981257 1.4228174456 
22.6369057 62.439259097 1.0901889561 22.778443935 62.475657163 1.4398306626 22.136772747 62.248824207 1.0374180408 
22.160695651 62.344600564 1.4627133967 21.742160902 62.049005927 0.99822207449 21.286003609 61.823255051 1.1675125936 
40.627167451 62.415981428 2.2400881917 41.025743253 62.208258306 1.9754191679 40.556564748 62.431581287 2.0133561143 
40.177784135 62.505624988 1.9109852479 39.66130712 62.53794468 1.7958805742 39.034077915 62.549174045 1.6818813145 
38.304907998 62.52937449 1.4999903419 37.629314074 62.712382224 1.493846013 37.125567439 62.700299189 1.2979679295 
36.555642939 62.668486827 1.0356656462 36.093959103 62.733594368 0.97375098619 36.208159102 62.617381566 0.82425670057 
26.133328394 61.77947324 0.60069300609 25.786431931 62.112023411 0.85871418994 25.265864541 62.326417982 0.72813996176 
24.645565641 62.517510074 0.6283966463 24.007564368 62.598454653 0.75694043902 23.505173767 62.589686938 0.83155331871 
23.066900252 62.491683476 0.77540386731 22.569106276 62.293083134 0.72641785165 22.050751831 61.957245155 0.64593042298 
21.600526775 61.842958818 0.84327963678 21.671174191 61.699010966 0.64801785791 41.25350606 62.079133859 1.5261923782 
40.740086429 62.292243557 1.6814576306 40.316808709 62.303202658 1.5166149352 39.732008743 62.25451318 1.4123659665 
39.027867909 62.247748589 1.3614151181 39.515183152 61.949785314 1.1992240774 38.593552804 62.236915181 1.2856321842 
38.239033402 62.09645445 1.1294785627 37.691865409 62.407370099 1.1861589125 37.143477729 62.39271055 0.9462777447 
36.73780878 62.403274333 0.75382053364 36.332153171 62.399362128 0.61570691631 26.018749385 61.629547559 0.23990707208 
25.660184614 62.023975101 0.45516387383 25.160239744 62.2463963 0.32893847448 23.552481902 62.493451366 0.45480071544 
22.995691829 62.336599099 0.47784192035 22.609580884 62.059448008 0.36435692038 22.239425158 61.718522024 0.27873252762 
21.747797172 61.362393071 0.37602080133 41.398862285 61.995422064 1.2487060346 41.035967905 62.06305187 1.2061631609 
40.514667264 62.005659331 1.106742195 40.021331326 61.90988476 1.1172270274 40.403535188 61.711131322 0.92805305584 
37.659428465 61.886698838 0.78850052077 36.99092394 62.120590364 0.61222900126 36.646727874 62.243400323 0.551154977 
25.991244992 61.406573549 -0.042874076187 25.56671261 61.788230777 0.0071408351019 25.016972639 62.125849069 -0.050223376422 
23.167257591 62.133261832 0.12622647268 22.668486736 61.67184055 -0.0056775778991 22.171350668 61.318576167 0.04658421007 
22.43797737 61.144453748 -0.20845358863 41.540244127 61.894931833 1.0347409915 41.957453263 61.619326466 0.71414862955 
41.500083717 61.842727445 0.81125314887 41.210618771 61.788820765 0.69309637547 40.802662986 61.695110124 0.76510416822 
41.115879003 61.527945683 0.51488420817 25.848855587 61.305710581 -0.25671272707 25.560333628 61.389366695 -0.37465917815 
25.259766459 61.722485166 -0.28755937649 24.894967128 61.82566344 -0.37924173598 24.492381844 61.907116656 -0.44059470379 
24.12663312 61.903489448 -0.460897898 23.742355916 61.737734378 -0.45543093069 23.210179262 61.666187782 -0.27840087338 
22.797868759 61.277548623 -0.31715976498 42.115510618 61.465890975 0.21606975478 41.734792382 61.673903922 0.45037522273 
41.642638007 61.591273405 0.2334696711 41.405463369 61.534517551 0.32253388881 25.206414669 61.264175366 -0.60282081037 
24.71876371 61.47446561 -0.63190963967 24.299759051 61.562275207 -0.63360998215 24.023789763 61.63247717 -0.59054257059 
42.222045592 61.328240297 -0.15112949345 41.948364196 61.519529749 0.058813773574 41.863030172 61.467237574 -0.064525035608 
41.691642033 61.320181801 -0.024505967273 42.274985311 61.204166416 -0.39240305875 42.079797631 61.369798681 -0.25652073888 
41.938805446 61.346441511 -0.24562012361 42.078547725 61.261777569 -0.40184442195 42.204814927 61.200276989 -0.46371018595 
35.143275783 61.050671142 5.1967518954 35.424181034 61.19480851 5.171979914 35.099448652 61.615981735 4.8964462566 
34.50483314 61.779578306 4.7322652025 34.693081809 61.188174051 5.0499709221 33.938522965 61.961996833 4.5697551682 
[...]
CELL_DATA 18728
FIELD FieldData 2
plab 7 18728 double
0.96282675171 0.0015747505527 0.0015747505527 0.0015747505527 0.029299495523 0.0015747505527 0.0015747505527 0.98349897564 0.0017760167986 
0.0017760167986 0.0017760167986 0.0076209403689 0.0017760167986 0.0017760167986 0.98528005577 0.0017875083195 0.0017875083195 0.0017875083195 
0.0057824026354 0.0017875083195 0.0017875083195 0.99157070662 0.0014048822293 0.0014048822293 0.0014048822293 0.0014048822293 0.0014048822293 
0.0014048822293 0.91451140443 0.0012748647538 0.0012748647538 0.0012748647538 0.079114271801 0.0012748647538 0.0012748647538 0.92173619003 
0.00079897879943 0.00079897879943 0.00079897879943 0.074268915975 0.00079897879943 0.00079897879943 0.97081593102 0.0015111790992 0.0015111790992 
0.0015111790992 0.021628173489 0.0015111790992 0.0015111790992 0.98646450558 0.0014137149358 0.0014137149358 0.001461282604 0.0064193520707 
0.0014137149358 0.0014137149358 0.98549765048 0.0014225342852 0.0014225342852 0.0072874738217 0.0015247385567 0.0014225342852 0.0014225342852 
0.98790324581 0.001209618254 0.001209618254 0.0059950138402 0.0012632673291 0.001209618254 0.001209618254 0.97243294115 0.0010184014752 
0.0010184014752 0.022429883256 0.0010635696901 0.0010184014752 0.0010184014752 0.9055073045 0.00080551948847 0.00080551948847 0.090392580844 
0.00087803670459 0.00080551948847 0.00080551948847 0.92363437972 0.0007013159377 0.0007013159377 0.0007013159377 0.072859040596 0.0007013159377 
0.0007013159377 0.9840623394 0.0011672404933 0.0011672404933 0.0021175561934 0.0091511424385 0.0011672404933 0.0011672404933 0.97049909897 
0.0010910790272 0.0010910790272 0.0011277908733 0.024008794051 0.0010910790272 0.0010910790272 0.95506578904 0.00089497768935 0.00089497768935 
0.039768042091 0.0015862581098 0.00089497768935 0.00089497768935 0.98138479798 0.0012680008421 0.0012680008421 0.011400817627 0.0021423810264 
0.0012680008421 0.0012680008421 0.89508576027 0.00078196614378 0.00078196614378 0.10086868779 0.0009176873644 0.00078196614378 0.00078196614378 
0.996255071 0.00062415483331 0.00062415483331 0.00062415483331 0.00062415483331 0.00062415483331 0.00062415483331 0.99654694636 0.00057550894062 
0.00057550894062 0.00057550894062 0.00057550894062 0.00057550894062 0.00057550894062 0.99732267775 0.00044622037466 0.00044622037466 0.00044622037466 
0.00044622037466 0.00044622037466 0.00044622037466 0.99755490705 0.00040751549173 0.00040751549173 0.00040751549173 0.00040751549173 0.00040751549173 
0.00040751549173 0.99768151637 0.00038641393867 0.00038641393867 0.00038641393867 0.00038641393867 0.00038641393867 0.00038641393867 0.997344987 
0.00044250216747 0.00044250216747 0.00044250216747 0.00044250216747 0.00044250216747 0.00044250216747 0.99745193662 0.00042467723055 0.00042467723055 
0.00042467723055 0.00042467723055 0.00042467723055 0.00042467723055 0.99728884031 0.00045185994882 0.00045185994882 0.00045185994882 0.00045185994882 
0.00045185994882 0.00045185994882 0.99590778148 0.00068203642 0.00068203642 0.00068203642 0.00068203642 0.00068203642 0.00068203642 
0.99617813039 0.00063685886645 0.00063685886645 0.00063685886645 0.00063685886645 0.0006375752768 0.00063685886645 0.99610539343 0.00064910109439 
0.00064910109439 0.00064910109439 0.00064910109439 0.00064910109439 0.00064910109439 0.99649387245 0.0005843545922 0.0005843545922 0.0005843545922 
0.0005843545922 0.0005843545922 0.0005843545922 0.99718526881 0.00046903392875 0.00046903392875 0.00046903392875 0.00046903392875 0.00046956155077 
0.00046903392875 0.99710195873 0.00037355495671 0.00037355495671 0.00037355495671 0.00037355495671 0.0010302664839 0.00037355495671 0.99738667227 
0.00033699024937 0.00033699024937 0.00033699024937 0.00033699024937 0.00092837647995 0.00033699024937 0.99445834169 0.00041821399654 0.00041821399654 
0.00041821399654 0.00041821399654 0.0034505883254 0.00041821399654 0.99631507977 0.00046090669808 0.00046090669808 0.00046090669808 0.00046090669808 
0.0013803867376 0.00046090669808 0.99298869866 0.0004697172804 0.0004697172804 0.0004697172804 0.0004760802897 0.0046563519335 0.0004697172804 
0.98885293669 0.00049797711353 0.00049797711353 0.00049797711353 0.002215129942 0.0069400249099 0.00049797711353 0.99343998783 0.0005206660828 
0.0005206660828 0.0005206660828 0.0022851010988 0.0021922467371 0.0005206660828 0.97702484142 0.00059595419712 0.00059595419712 0.00059595419712 
0.01072822976 0.0098631120326 0.00059595419712 0.89608999869 0.0006518552485 0.0006518552485 0.0006518552485 0.054040869136 0.047261711181 
0.0006518552485 0.99519776566 0.00080037238928 0.00080037238928 0.00080037238928 0.00080037238928 0.00080037238928 0.00080037238928 0.9953864355 
0.00076892741647 0.00076892741647 0.00076892741647 0.00076892741647 0.00076892741647 0.00076892741647 0.99448609998 0.0009189833373 0.0009189833373 
0.0009189833373 0.0009189833373 0.0009189833373 0.0009189833373 0.99313942267 0.00086989858281 0.00086989858281 0.00086989858281 0.00086989858281 
0.0025110844149 0.00086989858281 0.9947792182 0.00087013030051 0.00087013030051 0.00087013030051 0.00087013030051 0.00087013030051 0.00087013030051 
0.99543458847 0.00076090192094 0.00076090192094 0.00076090192094 0.00076090192094 0.00076090192094 0.00076090192094 0.99469242393 0.00067270616343 
0.00067270616343 0.00067270616343 0.00067270616343 0.0019440452531 0.00067270616343 0.99149637433 0.00064094102507 0.00064094102507 0.00064094102507 
0.00064094102507 0.0052989205431 0.00064094102507 0.99376518651 0.00048368942015 0.00048368942015 0.00048368942015 0.00048368942015 0.0038163663875 
0.00048368942015 0.97941753634 0.00059527493147 0.00059527493147 0.00059527493147 0.00059527493147 0.017606089006 0.00059527493147 0.97948852337 
0.00057034763768 0.00057034763768 0.00057034763768 0.00057034763768 0.017659738438 0.00057034763768 0.95415597746 0.0008869059024 0.0008869059024 
0.0008869059024 0.0008869059024 0.041409493024 0.0008869059024 0.91799936787 0.0011389498658 0.0011389498658 0.0011389498658 0.0011389498658 
0.076305882802 0.0011389498658 0.94986849957 0.00078709466555 0.00078709466555 0.00078709466555 0.00085082436951 0.046132297394 0.00078709466555 
0.96926475474 0.00066534775756 0.00066534775756 0.00066534775756 0.00067436086852 0.02739949336 0.00066534775756 0.91738361098 0.00077915293205 
0.00077915293205 0.00077915293205 0.016954618324 0.06254515897 0.00077915293205 0.95592723215 0.00064670949799 0.00064670949799 0.00064670949799 
0.0030680916898 0.038417838164 0.00064670949799 0.87843233527 0.00067364552397 0.00067364552397 0.00067364552397 0.063297045773 0.05557603686 
0.00067364552397 0.9939409067 0.0010098488839 0.0010098488839 0.0010098488839 0.0010098488839 0.0010098488839 0.0010098488839 0.99402881538 
0.00099519743598 0.00099519743598 0.00099519743598 0.00099519743598 0.00099519743598 0.00099519743598 0.99370910247 0.0010484829218 0.0010484829218 
0.0010484829218 0.0010484829218 0.0010484829218 0.0010484829218 0.99373642257 0.0010439295709 0.0010439295709 0.0010439295709 0.0010439295709 
0.0010439295709 0.0010439295709 0.99425018168 0.00095830305346 0.00095830305346 0.00095830305346 0.00095830305346 0.00095830305346 0.00095830305346 
0.99470361407 0.00088273098828 0.00088273098828 0.00088273098828 0.00088273098828 0.00088273098828 0.00088273098828 0.9936942665 0.0010509555834 
0.0010509555834 0.0010509555834 0.0010509555834 0.0010509555834 0.0010509555834 0.99193214027 0.0010534719327 0.0010534719327 0.0010534719327 
0.0010534719327 0.00280050007 0.0010534719327 0.98836038831 0.00091840608465 0.00091840608465 0.00091840608465 0.00091840608465 0.007047581267 
0.00091840608465 0.9787453322 0.00080482106259 0.00080482106259 0.00080482106259 0.00080482106259 0.017230562485 0.00080482106259 0.97964825354 
0.00072582032018 0.00072582032018 0.00072582032018 0.00072582032018 0.016722644856 0.00072582032018 0.92621666945 0.00095664286958 0.00095664286958 
0.00095664286958 0.00095664286958 0.069000116203 0.00095664286958 0.89701979572 0.0010094252586 0.0010094252586 0.0010094252586 0.0010094252586 
0.097933077988 0.0010094252586 0.78642752218 0.0011642851677 0.0011642851677 0.0011642851677 0.0011642851677 0.20775105198 0.0011642851677 
0.54325240257 0.0010357794363 0.0010357794363 0.0010357794363 0.0010357794363 0.45156870025 0.0010357794363 0.89493083008 0.0011692977564 
0.0011692977564 0.0011692977564 0.0011692977564 0.099222681143 0.0011692977564 0.99396414456 0.0010059759066 0.0010059759066 0.0010059759066 
0.0010059759066 0.0010059759066 0.0010059759066 0.99289705331 0.0011838244482 0.0011838244482 0.0011838244482 0.0011838244482 0.0011838244482 
0.0011838244482 0.99341996833 0.0010966719442 0.0010966719442 0.0010966719442 0.0010966719442 0.0010966719442 0.0010966719442 0.99407017839 
0.00098830360128 0.00098830360128 0.00098830360128 0.00098830360128 0.00098830360128 0.00098830360128 0.9932102902 0.0011316183 0.0011316183 
0.0011316183 0.0011316183 0.0011316183 0.0011316183 0.99383492433 0.0010275126114 0.0010275126114 0.0010275126114 0.0010275126114 
0.0010275126114 0.0010275126114 0.99377771996 0.0010370466736 0.0010370466736 0.0010370466736 0.0010370466736 0.0010370466736 0.0010370466736 
0.99232094549 0.0010287316466 0.0010287316466 0.0010287316466 0.0010287316466 0.0025353962786 0.0010287316466 0.98803888643 0.0010354386058 
0.0010354386058 0.0010354386058 0.0010354386058 0.006783920545 0.0010354386058 0.97984527594 0.00097221451908 0.00097221451908 0.00097221451908 
0.00097221451908 0.01529365146 0.00097221451908 0.98010904313 0.00087212784839 0.00087212784839 0.00087212784839 0.00087212784839 0.015530317623 
0.00087212784839 0.93722162512 0.0011087795158 0.0011087795158 0.0011087795158 0.0011087795158 0.057234477298 0.0011087795158 0.76703424761 
0.0011690149654 0.0011690149654 0.0011690149654 0.0011690149654 0.22712067756 0.0011690149654 0.42260704339 0.00090410143165 0.00090410143165 
0.00090410143165 0.00090410143165 0.57287244945 0.00090410143165 0.45191400091 0.00099408298427 0.00099408298427 0.00099408298427 0.00099408298427 
0.54311558417 0.00099408298427 0.38250012279 0.00081363145211 0.00081363145211 0.00081363145211 0.00081363145211 0.61343171995 0.00081363145211 
0.98801648387 0.0019972526876 0.0019972526876 0.0019972526876 0.0019972526876 0.0019972526876 0.0019972526876 0.99026656424 0.0016222392936 
0.0016222392936 0.0016222392936 0.0016222392936 0.0016222392936 0.0016222392936 0.99132310691 0.0014461488484 0.0014461488484 0.0014461488484 
0.0014461488484 0.0014461488484 0.0014461488484 0.99498471601 0.0008358806642 0.0008358806642 0.0008358806642 0.0008358806642 0.0008358806642 
0.0008358806642 0.99503158664 0.00082806889308 0.00082806889308 0.00082806889308 0.00082806889308 0.00082806889308 0.00082806889308 0.99451597751 
0.00091400374778 0.00091400374778 0.00091400374778 0.00091400374778 0.00091400374778 0.00091400374778 0.99452997395 0.0009116710089 0.0009116710089 
0.0009116710089 0.0009116710089 0.0009116710089 0.0009116710089 0.99421949481 0.00096341753198 0.00096341753198 0.00096341753198 0.00096341753198 
0.00096341753198 0.00096341753198 0.99385305197 0.0010244913384 0.0010244913384 0.0010244913384 0.0010244913384 0.0010244913384 0.0010244913384 
0.99435974994 0.0009400416771 0.0009400416771 0.0009400416771 0.0009400416771 0.0009400416771 0.0009400416771 0.99408182126 0.00098636312277 
0.00098636312277 0.00098636312277 0.00098636312277 0.00098636312277 0.00098636312277 0.99313376392 0.00094778785395 0.00094778785395 0.00094778785395 
0.00094778785395 0.0021272968136 0.00094778785395 0.98970308812 0.00097770407173 0.00097770407173 0.00097770407173 0.00097770407173 0.0054083915181 
0.00097770407173 0.98384449775 0.0010447505053 0.0010447505053 0.0010447505053 0.0010447505053 0.010931749724 0.0010447505053 0.98320181887 
0.0010373624627 0.0010373624627 0.0010373624627 0.0010373624627 0.011611368812 0.0010373624627 0.94822284404 0.0014083982741 0.0014083982741 
0.0014083982741 0.0014083982741 0.044735164591 0.0014083982741 0.8002627826 0.0014861472012 0.0014861472012 0.0014861472012 0.0014861472012 
0.1923064814 0.0014861472012 0.48966370655 0.0012047982563 0.0012047982563 0.0012047982563 0.0012047982563 0.50431230217 0.0012047982563 
0.47627116069 0.0013232277081 0.0013232277081 0.0013232277081 0.0013232277081 0.51711270077 0.0013232277081 0.4871657876 0.0010880003 
0.0010880003 0.0010880003 0.0010880003 0.5073942109 0.0010880003 0.98772751525 0.0020454141255 0.0020454141255 0.0020454141255 
0.0020454141255 0.0020454141255 0.0020454141255 0.96865147079 0.005224754868 0.005224754868 0.005224754868 0.005224754868 0.005224754868 
0.005224754868 0.98155214503 0.0030746424951 0.0030746424951 0.0030746424951 0.0030746424951 0.0030746424951 0.0030746424951 0.9874164791 
0.0020972534839 0.0020972534839 0.0020972534839 0.0020972534839 0.0020972534839 0.0020972534839 0.98162534013 0.0030624433114 0.0030624433114 
0.0030624433114 0.0030624433114 0.0030624433114 0.0030624433114 0.98932287703 0.0017795204946 0.0017795204946 0.0017795204946 0.0017795204946 
0.0017795204946 0.0017795204946 0.99502574878 0.00082904186965 0.00082904186965 0.00082904186965 0.00082904186965 0.00082904186965 0.00082904186965 
0.99576302846 0.00070616192306 0.00070616192306 0.00070616192306 0.00070616192306 0.00070616192306 0.00070616192306 0.99575716006 0.00070713998926 
0.00070713998926 0.00070713998926 0.00070713998926 0.00070713998926 0.00070713998926 0.99596177627 0.00067303728823 0.00067303728823 0.00067303728823 
0.00067303728823 0.00067303728823 0.00067303728823 0.99521078047 0.00079820325536 0.00079820325536 0.00079820325536 0.00079820325536 0.00079820325536 
0.00079820325536 0.99492387131 0.00084602144833 0.00084602144833 0.00084602144833 0.00084602144833 0.00084602144833 0.00084602144833 0.99306461668 
0.00095733266272 0.00095733266272 0.00095733266272 0.00095733266272 0.0021487200058 0.00095733266272 0.98008466002 0.0011466243212 0.0011466243212 
0.0011466243212 0.0011466243212 0.014182218374 0.0011466243212 0.96585504715 0.0012024614573 0.0012024614573 0.0012024614573 0.0012024614573 
0.028132645568 0.0012024614573 0.90357450434 0.0013851037132 0.0013851037132 0.0013851037132 0.0013851037132 0.089499977094 0.0013851037132 
0.86195803435 0.0015865685407 0.0015865685407 0.0015865685407 0.0015865685407 0.13010912294 0.0015865685407 0.545691227 0.0014288402571 
0.0014288402571 0.0014288402571 0.0014288402571 0.44716457172 0.0014288402571 0.52294658244 0.0014100603394 0.0014100603394 0.0014100603394 
0.0014100603394 0.47000311586 0.0014100603394 0.46457215531 0.0014541433666 0.0014541433666 0.0014541433666 0.0014541433666 0.52815712786 
0.0014541433666 0.52895875671 0.0019745240425 0.0019745240425 0.0019745240425 0.46116862307 0.0019745240425 0.0019745240425 0.86323595883 
0.0021018709917 0.0021018709917 0.0021018709917 0.12625468621 0.0021018709917 0.0021018709917 0.88124133852 0.0029551854494 0.0029551854494 
0.0029551854494 0.10398273424 0.0029551854494 0.0029551854494 0.97776393515 0.0019733549586 0.0019733549586 0.0019733549586 0.012369290057 
0.0019733549586 0.0019733549586 0.99091913554 0.0015134774104 0.0015134774104 0.0015134774104 0.0015134774104 0.0015134774104 0.0015134774104 
0.9697227486 0.0050462085664 0.0050462085664 0.0050462085664 0.0050462085664 0.0050462085664 0.0050462085664 0.98531329393 0.0024477843449 
0.0024477843449 0.0024477843449 0.0024477843449 0.0024477843449 0.0024477843449 0.98942854656 0.0017619089074 0.0017619089074 0.0017619089074 
0.0017619089074 0.0017619089074 0.0017619089074 0.95939041564 0.0067682640601 0.0067682640601 0.0067682640601 0.0067682640601 0.0067682640601 
0.0067682640601 0.94930265172 0.0084495580471 0.0084495580471 0.0084495580471 0.0084495580471 0.0084495580471 0.0084495580471 0.97699966312 
0.00383338948 0.00383338948 0.00383338948 0.00383338948 0.00383338948 0.00383338948 0.98936178596 0.0017730356738 0.0017730356738 
0.0017730356738 0.0017730356738 0.0017730356738 0.0017730356738 0.9958219096 0.00069634840066 0.00069634840066 0.00069634840066 0.00069634840066 
0.00069634840066 0.00069634840066 0.99587699113 0.00068716814538 0.00068716814538 0.00068716814538 0.00068716814538 0.00068716814538 0.00068716814538 
0.99602053443 0.00066324426221 0.00066324426221 0.00066324426221 0.00066324426221 0.00066324426221 0.00066324426221 0.99546168255 0.00075638624194 
0.00075638624194 0.00075638624194 0.00075638624194 0.00075638624194 0.00075638624194 0.99511876648 0.00081353891995 0.00081353891995 0.00081353891995 
0.00081353891995 0.00081353891995 0.00081353891995 0.99242667351 0.0012622210813 0.0012622210813 0.0012622210813 0.0012622210813 0.0012622210813 
0.0012622210813 0.98340561164 0.0015788103929 0.0015788103929 0.0015788103929 0.0015788103929 0.0087003363933 0.0015788103929 0.92040837171 
0.0019627451844 0.0019627451844 0.0019627451844 0.0019627451844 0.06977790237 0.0019627451844 0.6986951389 0.0013368747425 0.0013368747425 
0.0013368747425 0.0013368747425 0.29462048739 0.0013368747425 0.54556200385 0.0013954070282 0.0013954070282 0.0013954070282 0.0013954070282 
0.44746096101 0.0013954070282 0.40695293088 0.0013972330604 0.0013972330604 0.0013972330604 0.0013972330604 0.58606090382 0.0013972330604 
0.47590030508 0.0013966524165 0.0013966524165 0.0013966524165 0.0013966524165 0.51711643284 0.0013966524165 0.25342806851 0.0019076650315 
0.0019076650315 0.0019076650315 0.73703360633 0.0019076650315 0.0019076650315 0.15778307579 0.0017582771217 0.0017582771217 0.0017582771217 
0.8334255386 0.0017582771217 0.0017582771217 0.46955585208 0.0034589344157 0.0034589344157 0.0034589344157 0.51314947584 0.0034589344157 
0.0034589344157 0.71385585665 0.0022138007615 0.0022138007615 0.0022138007615 0.27507513954 0.0022138007615 0.0022138007615 0.9810115159 
0.00091790086924 0.00091790086924 0.00091790086924 0.014398979757 0.00091790086924 0.00091790086924 0.98897201198 0.0013228597455 0.0013228597455 
0.0013228597455 0.0044136892914 0.0013228597455 0.0013228597455 0.99480197992 0.00083981282086 0.00083981282086 0.00083981282086 0.00099895597866 
0.00083981282086 0.00083981282086 0.9958398852 0.00069335246695 0.00069335246695 0.00069335246695 0.00069335246695 0.00069335246695 0.00069335246695 
0.99673807572 0.00054365404642 0.00054365404642 0.00054365404642 0.00054365404642 0.00054365404642 0.00054365404642 0.99634740187 0.00060876635525 
0.00060876635525 0.00060876635525 0.00060876635525 0.00060876635525 0.00060876635525 0.92552140094 0.0012142467499 0.0012142467499 0.068407365305 
0.0012142467499 0.0012142467499 0.0012142467499 0.91818132623 0.001251723405 0.001251723405 0.075560056745 0.001251723405 0.001251723405 
0.001251723405 0.99315721266 0.0011404645567 0.0011404645567 0.0011404645567 0.0011404645567 0.0011404645567 0.0011404645567 0.97469698355 
0.0031511786307 0.0031511786307 0.0031511786307 0.0031511786307 0.0095471232943 0.0031511786307 0.98922614082 0.0017956431963 0.0017956431963 
0.0017956431963 0.0017956431963 0.0017956431963 0.0017956431963 0.99094337311 0.0015094378145 0.0015094378145 0.0015094378145 0.0015094378145 
0.0015094378145 0.0015094378145 0.95826174945 0.0051979843384 0.0051979843384 0.0051979843384 0.0051979843384 0.015748328856 0.0051979843384 
0.90955890132 0.0065159499038 0.0065159499038 0.0065159499038 0.0065159499038 0.05786134916 0.0065159499038 0.9356566368 0.0081129250082 
0.0081129250082 0.0081129250082 0.0081129250082 0.023778738161 0.0081129250082 0.89798578528 0.0077053703408 0.0077053703408 0.0077053703408 
0.0077053703408 0.063487363013 0.0077053703408 0.96953207128 0.0039005739326 0.0039005739326 0.0039005739326 0.0039005739326 0.010965059059 
0.0039005739326 0.9863690622 0.0017449582747 0.0017449582747 0.0017449582747 0.0017449582747 0.0049061464303 0.0017449582747 0.99535596088 
0.00077398483088 0.00077398483088 0.00077398483088 0.00077398483088 0.00077411496775 0.00077398483088 0.99587940594 0.0006867464311 0.0006867464311 