# vtk DataFile Version 5.1
vtk output
ASCII
DATASET POLYDATA
POINTS 8946 float
38.3099 64.1165 3.25737 38.0273 64.1761 3.18666 38.3061 64.1653 2.94539 
38.9618 64.0474 2.94676 38.6977 64.0479 3.28203 39.6089 63.9906 2.94011 
39.3191 63.9902 3.27911 40.199 64.0144 2.93679 39.9499 63.9661 3.2486 
40.6825 64.0701 2.8756 40.5909 63.9648 3.17368 40.982 64.0346 2.96623 
36.6274 64.4979 2.71621 36.3555 64.5272 2.64983 36.5984 64.574 2.42344 
37.238 64.4163 2.44673 36.9961 64.4233 2.77173 37.9075 64.2077 2.52029 
37.6305 64.2978 2.88675 38.5782 64.0099 2.57558 39.2518 63.8781 2.60235 
39.9744 63.861 2.58725 40.4365 64.033 2.7203 40.7612 64.0781 2.67617 
41.2909 64.0075 2.88047 41.1197 64.0657 2.71087 41.422 64.0138 2.73485 
35.6191 64.6361 2.30261 35.3725 64.613 2.19961 35.6458 64.7189 2.06699 
36.1586 64.6905 2.0485 35.9913 64.6131 2.39225 36.763 64.5383 1.99809 
37.4878 64.2381 2.06062 37.0358 64.3583 1.6864 38.186 63.9164 2.15522 
38.8538 63.6636 2.23184 39.5042 63.5311 2.28153 40.0613 63.4888 2.25445 
40.3331 63.7768 2.38747 40.5952 63.9591 2.49799 40.9524 64.0508 2.54417 
41.2627 64.0016 2.44769 41.5685 63.9566 2.52968 35.242 64.657 1.97242 
34.9416 64.5659 1.68037 35.3564 64.7287 1.79326 35.7077 64.7567 1.73564 
36.1565 64.6936 1.6295 36.5838 64.5575 1.56297 36.2663 64.6212 1.32018 
40.5543 63.8208 2.35212 40.7719 63.8072 2.29077 40.9999 63.9435 2.36964 
41.2881 63.8895 2.26745 41.8726 63.8332 2.29336 41.5956 63.8551 2.24591 
41.941 63.7122 2.09053 34.9293 64.5995 1.42013 35.2562 64.7131 1.49971 
35.6207 64.732 1.35298 35.229 64.6812 1.21932 35.9475 64.6804 1.25863 
41.1177 63.7165 2.15949 41.4405 63.7286 2.11444 41.7491 63.5956 1.98348 
34.978 64.6031 1.25713 36.0228 62.8015 3.89849 35.6115 62.9156 3.72218 
36.0399 63.3239 3.60802 36.7993 63.5425 3.67231 36.6119 62.9866 3.96407 
37.4606 63.7422 3.66748 37.4006 63.2319 4.02345 37.904 63.5811 3.87828 
39.49 63.4007 4.15758 39.1962 63.4339 4.1375 39.4332 63.6254 3.91022 
40.0593 63.6046 3.83555 39.8564 63.3461 4.13678 40.6439 63.5607 3.74521 
40.4399 63.2774 4.06682 41.1358 63.5597 3.59993 41.0849 63.1993 3.93293 
41.4757 63.3477 3.65986 34.5764 63.0416 3.32715 34.3103 63.2298 3.14546 
34.8438 63.5368 3.10815 35.5855 63.6946 3.2262 35.2156 63.1453 3.46374 
36.3022 63.8581 3.3099 36.9613 63.9848 3.36751 37.5149 64.0454 3.40821 
38.2797 63.6257 3.90038 38.1859 63.9207 3.55906 39.0019 63.8647 3.60661 
38.7491 63.6092 3.93428 39.6744 63.8384 3.57801 40.2928 63.8146 3.51215 
40.8388 63.7845 3.43369 41.1991 63.739 3.38598 41.8157 63.2978 3.52526 
41.5698 63.5977 3.33999 41.9836 63.4058 3.29705 33.9085 63.5328 2.76641 
33.7191 63.5909 2.53544 34.1396 63.7233 2.69484 34.5942 63.8507 2.76199 
34.2108 63.5017 2.92501 35.2053 64.0033 2.84751 35.8593 64.1429 2.9442 
36.5486 64.2848 2.97567 37.217 64.2424 3.11418 37.7164 64.1748 3.24285 
41.2212 63.875 3.14038 41.6285 63.7625 3.07632 42.246 63.3365 3.15586 
42.0168 63.5848 2.99648 42.3456 63.3892 2.97564 33.8023 63.8054 2.17331 
34.2402 63.9215 2.45887 34.8115 64.1677 2.4722 35.467 64.4045 2.51511 
36.0371 64.4326 2.7061 41.678 63.8609 2.8082 42.1657 63.6645 2.62551 
42.4887 63.3935 2.71989 33.88 63.9176 1.7839 34.3546 64.1246 2.11756 
34.9317 64.4286 2.10308 37.3988 64.159 1.72454 37.7983 63.848 1.71228 
37.9952 63.3805 1.39823 38.4698 63.3946 1.79998 39.145 63.1365 1.95137 
39.7587 63.023 2.02236 40.5048 63.5833 2.21737 40.348 63.0569 2.02649 
40.6652 63.374 2.0772 41.9663 63.8102 2.4679 42.2471 63.6837 2.3871 
42.7955 63.2632 2.45298 42.5578 63.4764 2.32616 42.865 63.2656 2.27341 
33.9886 63.976 1.35569 34.4418 64.2604 1.71054 36.4991 64.5444 1.3347 
36.7453 64.3585 1.29267 37.2486 64.0666 1.40448 37.5867 63.6967 1.30637 
40.8395 63.4035 2.04684 40.8259 63.587 2.13637 41.0401 63.4168 2.01624 
42.2539 63.637 2.14246 42.6721 63.4096 1.97231 42.9254 63.2233 2.06997 
34.0506 63.9346 0.912084 34.567 64.3367 1.2327 35.3514 64.6506 1.04675 
35.6607 64.6373 1.01252 36.0471 64.5154 0.957643 36.3997 64.487 1.14361 
41.4218 63.4068 1.93887 41.866 63.2296 1.74514 42.1801 63.4642 1.82738 
42.4887 63.4664 1.85101 42.7616 63.2945 1.69991 42.9981 63.1392 1.77095 
34.0227 63.7809 0.517474 34.462 64.132 0.666303 34.9512 64.4843 0.934299 
35.3148 64.5077 0.727008 35.6898 64.4953 0.730653 35.5069 64.3829 0.487414 
42.163 63.2481 1.65357 42.398 63.1927 1.55616 42.5456 63.336 1.64836 
42.7707 63.1966 1.53072 43.0176 63.0055 1.49738 34.2012 63.7666 0.216589 
34.5492 64.0519 0.29157 34.8918 64.2961 0.487005 35.2235 64.3423 0.402365 
35.0306 64.1928 0.194794 42.6386 63.1703 1.48965 42.8327 62.9885 1.39153 
34.7614 64.0865 0.146225 37.0123 62.1392 4.55491 36.7054 62.1995 4.41711 
37.0408 62.6162 4.30225 37.7538 62.8144 4.38928 37.4972 62.3115 4.61954 
38.3118 62.8289 4.50854 38.0803 62.4317 4.70787 38.8124 62.9575 4.47816 
38.665 62.5332 4.74778 39.4521 63.0776 4.39409 39.2543 62.6202 4.72147 
40.1478 62.9727 4.38248 39.8695 62.6211 4.68159 40.7715 62.878 4.30182 
40.4906 62.5391 4.62909 41.3528 62.7464 4.20456 41.0793 62.4234 4.54612 
41.8148 62.5702 4.14489 41.624 62.2823 4.44002 42.1637 62.5846 3.94108 
42.1582 62.1578 4.26088 42.4737 62.2886 3.97182 35.5277 62.4126 3.92548 
35.0613 62.4268 3.77845 35.2006 62.7112 3.69521 36.2237 62.2623 4.2078 
38.2497 63.2561 4.18407 38.8838 63.2896 4.23864 41.7566 62.9711 3.83465 
42.1875 62.8236 3.72171 42.7615 62.1862 3.8274 42.5576 62.5792 3.64854 
42.8772 62.282 3.63885 32.5904 62.5383 2.9944 32.3558 62.6369 2.84562 
32.8507 62.9052 2.79325 33.5767 63.1743 2.87728 33.1299 62.6329 3.08733 
33.9894 63.1842 3.05906 33.878 62.7214 3.26398 34.5806 62.4842 3.58756 
42.2429 63.0529 3.44252 42.6962 62.7886 3.29062 42.9988 62.3941 3.37259 
32.3653 62.8132 2.66136 32.0543 62.8005 2.41237 32.6186 63.02 2.50068 
33.1318 63.255 2.52189 42.5872 63.1113 3.02997 43.2747 62.3254 3.09555 
43.0488 62.6894 2.95511 43.3478 62.383 2.91223 32.0026 62.8416 2.08423 
32.6765 63.1536 2.11851 33.3166 63.4993 2.24985 42.8848 63.0542 2.67117 
43.201 62.7599 2.57894 43.4161 62.423 2.68563 32.2034 62.8884 1.77592 
32.7718 63.146 1.55933 33.2949 63.5393 1.88662 38.3817 63.0028 1.44088 
38.4684 62.5657 1.24273 38.8565 62.6763 1.59124 39.4532 62.4782 1.76692 
40.0475 62.42 1.85428 40.814 63.0977 1.95692 40.6527 62.4572 1.84447 
41.0091 62.8006 1.83895 43.1317 62.964 2.27208 43.4701 62.521 2.33651 
33.0359 63.1885 1.10881 33.4156 63.5865 1.45795 36.9024 64.0885 1.04913 
37.2375 63.7802 1.0234 37.6135 63.3122 0.95466 38.0718 62.9088 1.10098 
41.225 62.8324 1.79384 41.1739 63.1055 1.87825 41.5048 62.8958 1.74114 
43.244 62.9033 1.88403 43.4939 62.5856 1.99965 33.2506 63.2022 0.720336 
33.5654 63.5999 1.03472 36.4487 64.2354 0.832929 36.8248 63.8593 0.677744 
37.2053 63.5361 0.714055 36.9799 63.5218 0.439172 41.8717 62.8242 1.60162 
43.2889 62.8074 1.57793 43.5439 62.5254 1.67271 33.3977 63.1649 0.387221 
33.6689 63.537 0.626105 35.9071 64.2503 0.474969 36.3356 63.9485 0.33601 
36.6927 63.6867 0.317506 36.4855 63.6584 0.0725688 42.1846 62.967 1.52941 
42.4199 62.9536 1.43946 43.2985 62.6585 1.33654 43.551 62.4216 1.39834 
33.7494 63.3711 0.183879 34.47 63.8012 -0.052119 34.027 63.3415 -0.239956 
35.3944 64.1458 0.132565 35.8223 63.9143 -0.0666873 36.2109 63.7691 -0.0341734 
36.0619 63.7095 -0.233702 42.6051 62.9558 1.39545 42.8208 62.6819 1.26492 
43.0689 62.7312 1.282 43.2791 62.4882 1.1848 43.5038 62.2922 1.18453 
34.0835 63.1172 -0.658911 34.4624 63.5278 -0.469713 34.8966 63.9202 -0.149494 
35.293 63.8684 -0.306226 35.5493 63.7433 -0.470428 35.8755 63.5777 -0.520358 
43.1015 62.3689 1.13301 43.3614 62.2249 1.09399 34.3216 63.2112 -0.828658 
34.5994 63.4135 -0.792224 34.8875 63.6557 -0.570289 35.22 63.6202 -0.716243 
35.5261 63.5654 -0.740407 35.3311 63.4445 -0.954811 34.8729 63.3849 -0.967055 
35.1335 63.4336 -0.987659 19.7342 61.274 5.69552 19.4956 61.3458 5.61688 
19.6981 61.6226 5.47809 20.0046 61.4748 5.61085 19.1323 61.4315 5.34348 
19.0103 61.3534 5.15074 19.2231 61.5876 5.26566 19.4583 61.7446 5.264 
19.3224 61.471 5.45089 19.748 61.8805 5.23919 20.2395 61.5517 5.56081 
20.1361 61.8177 5.3358 20.6069 61.9323 5.18968 20.555 61.4661 5.52466 
20.9074 61.6476 5.33258 19.0106 61.4301 4.81532 19.2519 61.6861 5.0318 
19.5537 61.9194 5.00127 19.9085 62.0578 5.01491 20.2959 62.1516 4.97297 
20.7193 62.2502 4.83969 21.0648 62.0026 5.02055 19.0207 61.4509 4.53707 
19.3337 61.7957 4.64619 19.6978 62.0652 4.74098 20.0217 62.227 4.69333 
20.398 62.3656 4.6397 20.7413 62.4494 4.52949 21.3965 62.1016 4.82496 
21.1786 62.3541 4.57735 21.5263 62.2086 4.6463 19.1283 61.5814 4.38747 
19.3145 61.7411 4.25482 19.7333 62.0919 4.31697 20.1499 62.3518 4.40495 
20.4908 62.4872 4.29947 20.9109 62.5585 4.22793 21.386 62.5683 4.11935 
21.7285 62.3135 4.37207 38.8513 61.3618 5.46168 38.5846 61.3636 5.41378 
38.8214 61.71 5.2571 39.408 61.7862 5.24616 39.1966 61.3564 5.48064 
39.9891 61.7723 5.22032 39.7468 61.3485 5.48224 40.5708 61.6959 5.17041 
40.3185 61.2983 5.45068 41.1519 61.5527 5.09765 40.8818 61.1973 5.39147 
41.7281 61.3648 4.99314 41.4608 60.9745 5.33183 42.2544 61.2623 4.8069 
42.1086 60.6561 5.23828 42.6346 60.7806 4.89615 19.4636 61.7906 3.95368 
19.8173 62.0715 3.78776 20.1696 62.3592 4.03824 20.6037 62.553 3.92651 
21.0426 62.67 3.86312 21.4421 62.7114 3.75734 22.2388 62.1654 4.23477 
21.965 62.5775 3.82679 22.5263 62.3257 3.90233 37.8018 61.5322 5.12551 
37.4682 61.4838 5.0298 37.823 61.9208 4.92623 38.4412 62.0757 4.98649 
38.2114 61.5718 5.21271 39.0406 62.1757 4.99999 39.6358 62.2108 4.97692 
40.2336 62.1695 4.93391 40.8248 62.0669 4.86811 41.3935 61.9256 4.77396 
41.9222 61.7937 4.63496 42.3663 61.6842 4.47266 42.9874 60.825 4.65665 
42.7439 61.2848 4.50244 43.1238 61.0318 4.41649 19.8888 61.9908 3.39967 
20.3106 62.3613 3.51939 20.7777 62.624 3.58771 21.1656 62.7384 3.49598 
21.6279 62.7895 3.43759 22.1169 62.8211 3.2786 22.6065 62.6466 3.46616 
37.2042 61.7762 4.79288 36.5656 61.6836 4.59342 42.701 61.8342 4.1295 
43.3632 60.9593 4.25417 43.1413 61.3811 4.11555 43.4438 61.0887 4.06668 
[...]
CELL_DATA 17888
FIELD FieldData 1
plab 7 17888 double
0.87849893168 0.0022742902537 0.0022742902537 0.0022742902537 0.0022742902537 0.11012961706 0.0022742902537 0.91019340481 0.0020319256967 
0.0020319256967 0.0020319256967 0.0020319256967 0.079646966705 0.0020319256967 0.89469866204 0.0023849557184 0.0023849557184 0.0023849557184 
0.0023849557184 0.093376559371 0.0023849557184 0.93809174149 0.0016734894448 0.0016734894448 0.0016734894448 0.0016734894448 0.053540811288 
0.0016734894448 0.94224936931 0.0014477686547 0.0014477686547 0.0014477686547 0.0014477686547 0.050511787416 0.0014477686547 0.9667019317 
0.00096219979328 0.00096219979328 0.00096219979328 0.00096219979328 0.028487069336 0.00096219979328 0.96195610512 0.000993927135 0.000993927135 
0.000993927135 0.000993927135 0.033074259203 0.000993927135 0.96563752045 0.00089827558582 0.00089827558582 0.00089827558582 0.00089827558582 
0.02987110162 0.00089827558582 0.96325138021 0.00078916056506 0.00078916056506 0.00078916056506 0.00078916056506 0.032802816963 0.00078916056506 
0.96773731153 0.00067991825482 0.00067991825482 0.00067991825482 0.00067991825482 0.028863097198 0.00067991825482 0.94455767315 0.0014325365468 
0.0014325365468 0.0014325365468 0.0014325365468 0.048279644114 0.0014325365468 0.91497275945 0.0015686688704 0.0015686688704 0.0015686688704 
0.0015686688704 0.077183896202 0.0015686688704 0.87858441839 0.002158208921 0.002158208921 0.002158208921 0.002158208921 0.110624537 
0.002158208921 0.85957959202 0.0025156387793 0.0025156387793 0.0025156387793 0.0025156387793 0.12784221408 0.0025156387793 0.84455472893 
0.0031058454165 0.0031058454165 0.0031058454165 0.0031058454165 0.13991604399 0.0031058454165 0.76598722611 0.0031808724431 0.0031808724431 
0.0031808724431 0.0031808724431 0.21810841168 0.0031808724431 0.84468751298 0.0029489331988 0.0029489331988 0.0029489331988 0.0029489331988 
0.14056782103 0.0029489331988 0.85632990247 0.0026477021117 0.0026477021117 0.0026477021117 0.0026477021117 0.13043158697 0.0026477021117 
0.77101287199 0.0033096045582 0.0033096045582 0.0033096045582 0.0033096045582 0.21243910522 0.0033096045582 0.64386112612 0.0041746740198 
0.0041746740198 0.0041746740198 0.0041746740198 0.33526550378 0.0041746740198 0.83153455719 0.0028837351477 0.0028837351477 0.0028837351477 
0.0028837351477 0.15404676708 0.0028837351477 0.88956253018 0.0019372823826 0.0019372823826 0.0019372823826 0.0019372823826 0.1007510579 
0.0019372823826 0.95854559101 0.00096009530413 0.00096009530413 0.00096009530413 0.00096009530413 0.036653932473 0.00096009530413 0.96736121363 
0.00087542900977 0.00087542900977 0.00087542900977 0.00087542900977 0.028261641325 0.00087542900977 0.96802706803 0.00079588030294 0.00079588030294 
0.00079588030294 0.00079588030294 0.027993530451 0.00079588030294 0.97848749731 0.00058355570732 0.00058355570732 0.00058355570732 0.00058355570732 
0.018594724155 0.00058355570732 0.99124895818 0.0005413924441 0.0005413924441 0.0005413924441 0.0005413924441 0.0060440796044 0.0005413924441 
0.98877256864 0.00063845832112 0.00063845832112 0.00063845832112 0.00063845832112 0.0080351397568 0.00063845832112 0.99506930129 0.00058520047855 
0.00058520047855 0.00058520047855 0.00058520047855 0.0020046963205 0.00058520047855 0.99676019558 0.00053996740278 0.00053996740278 0.00053996740278 
0.00053996740278 0.00053996740278 0.00053996740278 0.99566773763 0.00072204372913 0.00072204372913 0.00072204372913 0.00072204372913 0.00072204372913 
0.00072204372913 0.99527099749 0.00078816708582 0.00078816708582 0.00078816708582 0.00078816708582 0.00078816708582 0.00078816708582 0.99208058528 
0.0013199024539 0.0013199024539 0.0013199024539 0.0013199024539 0.0013199024539 0.0013199024539 0.95149057052 0.0024593234798 0.0024593234798 
0.0024593234798 0.0024593234798 0.036212812078 0.0024593234798 0.98392210502 0.0018786810115 0.0018786810115 0.0018786810115 0.0018786810115 
0.0066844899216 0.0018786810115 0.97984276126 0.0013285775053 0.0013285775053 0.0013285775053 0.0013285775053 0.013514351211 0.0013285775053 
0.86992351916 0.002330164305 0.002330164305 0.002330164305 0.002330164305 0.11842565932 0.002330164305 0.8574049662 0.0021465687565 
0.0021465687565 0.0021465687565 0.0021465687565 0.13186219001 0.0021465687565 0.85882739452 0.0016035793731 0.0016035793731 0.0016035793731 
0.0016035793731 0.13315470862 0.0016035793731 0.84783995529 0.0023354439503 0.0023354439503 0.0023354439503 0.0023354439503 0.14048282496 
0.0023354439503 0.85260644517 0.002459811275 0.002459811275 0.002459811275 0.002459811275 0.13509449845 0.002459811275 0.64680530024 
0.0033536827373 0.0033536827373 0.0033536827373 0.0033536827373 0.33642628607 0.0033536827373 0.75912180447 0.0031704562392 0.0031704562392 
0.0031704562392 0.0031704562392 0.22502591433 0.0031704562392 0.41482595521 0.0045166730837 0.0045166730837 0.0045166730837 0.0045166730837 
0.56259067938 0.0045166730837 0.50424859177 0.0039266610596 0.0039266610596 0.0039266610596 0.0039266610596 0.47611810293 0.0039266610596 
0.79950468662 0.0023623154846 0.0023623154846 0.0023623154846 0.0023623154846 0.18868373595 0.0023623154846 0.67307620287 0.0038318643213 
0.0038318643213 0.0038318643213 0.0038318643213 0.30776447553 0.0038318643213 0.97429698609 0.00079715673559 0.00079715673559 0.00079715673559 
0.00079715673559 0.021717230232 0.00079715673559 0.95652007392 0.00090022117477 0.00090022117477 0.00090022117477 0.00090022117477 0.038978820205 
0.00090022117477 0.91952063458 0.0010801458199 0.0010801458199 0.0010801458199 0.0010801458199 0.075078636324 0.0010801458199 0.98202259041 
0.00060834151942 0.00060834151942 0.00060834151942 0.00060834151942 0.01493570199 0.00060834151942 0.98587744066 0.00050909290484 0.00050909290484 
0.00050909290484 0.00050909290484 0.011577094816 0.00050909290484 0.99405555478 0.00045608322136 0.00045608322136 0.00045608322136 0.00045608322136 
0.0036640291175 0.00045608322136 0.99634884389 0.00047766803968 0.00047766803968 0.00047766803968 0.00047766803968 0.001262815916 0.00047766803968 
0.99696785274 0.00050535787654 0.00050535787654 0.00050535787654 0.00050535787654 0.00050535787654 0.00050535787654 0.99709026975 0.0004849550419 
0.0004849550419 0.0004849550419 0.0004849550419 0.0004849550419 0.0004849550419 0.99690335245 0.00051610792443 0.00051610792443 0.00051610792443 
0.00051610792443 0.00051610792443 0.00051610792443 0.99411875032 0.00098020827934 0.00098020827934 0.00098020827934 0.00098020827934 0.00098020827934 
0.00098020827934 0.99647177898 0.00058803683634 0.00058803683634 0.00058803683634 0.00058803683634 0.00058803683634 0.00058803683634 0.99609905253 
0.00065015791244 0.00065015791244 0.00065015791244 0.00065015791244 0.00065015791244 0.00065015791244 0.98907043051 0.001821594915 0.001821594915 
0.001821594915 0.001821594915 0.001821594915 0.001821594915 0.98673658093 0.0021929762065 0.0021929762065 0.0021929762065 0.0021929762065 
0.0022985380401 0.0021929762065 0.98011013669 0.0021300838981 0.0021300838981 0.0021300838981 0.0021300838981 0.0092394438156 0.0021300838981 
0.96023429313 0.0015566262198 0.0015566262198 0.0015566262198 0.0015566262198 0.031982575776 0.0015566262198 0.98661399889 0.0011308115121 
0.0011308115121 0.0011308115121 0.0011308115121 0.0077319435535 0.0011308115121 0.85896754648 0.0014621354249 0.0014621354249 0.0014621354249 
0.0014621354249 0.1337217764 0.0014621354249 0.94608078941 0.00084649429127 0.00084649429127 0.00084649429127 0.00084649429127 0.049686739137 
0.00084649429127 0.97669767465 0.00054406347634 0.00054406347634 0.00054406347634 0.00054406347634 0.020582007966 0.00054406347634 0.95222167505 
0.00058174146928 0.00058174146928 0.00058174146928 0.00058174146928 0.044869617602 0.00058174146928 0.94953053705 0.00067523183246 0.00067523183246 
0.00067523183246 0.00067523183246 0.047093303785 0.00067523183246 0.99149672606 0.00046302955666 0.00046302955666 0.00046302955666 0.00046302955666 
0.0061881261583 0.00046302955666 0.99499052656 0.00049819830976 0.00049819830976 0.00049819830976 0.00049819830976 0.0025184818868 0.00049819830976 
0.99735625274 0.00044062454374 0.00044062454374 0.00044062454374 0.00044062454374 0.00044062454374 0.00044062454374 0.99749811084 0.0004169815271 
0.0004169815271 0.0004169815271 0.0004169815271 0.0004169815271 0.0004169815271 0.99766838709 0.00038860215095 0.00038860215095 0.00038860215095 
0.00038860215095 0.00038860215095 0.00038860215095 0.9978418725 0.00035968791656 0.00035968791656 0.00035968791656 0.00035968791656 0.00035968791656 
0.00035968791656 0.99613893699 0.0006435105023 0.0006435105023 0.0006435105023 0.0006435105023 0.0006435105023 0.0006435105023 0.99582641321 
0.000695597798 0.000695597798 0.000695597798 0.000695597798 0.000695597798 0.000695597798 0.9935580891 0.0010736518166 0.0010736518166 
0.0010736518166 0.0010736518166 0.0010736518166 0.0010736518166 0.99085140336 0.001524766106 0.001524766106 0.001524766106 0.001524766106 
0.001524766106 0.001524766106 0.99250066927 0.0012498884543 0.0012498884543 0.0012498884543 0.0012498884543 0.0012498884543 0.0012498884543 
0.99288684886 0.0011642379707 0.0011642379707 0.0011642379707 0.0011642379707 0.0012919612851 0.0011642379707 0.98985606205 0.0016772006108 
0.0016772006108 0.0016772006108 0.0016772006108 0.0017579348984 0.0016772006108 0.99382429176 0.00094599033916 0.00094599033916 0.00094599033916 
0.00094599033916 0.001445756545 0.00094599033916 0.92548003494 0.00049516010982 0.00049516010982 0.00049516010982 0.00049516010982 0.072044164508 
0.00049516010982 0.99478761177 0.00049466349828 0.00049466349828 0.00049466349828 0.00049466349828 0.002739070734 0.00049466349828 0.98354140018 
0.00051443981538 0.00051443981538 0.00051443981538 0.00051443981538 0.013886400748 0.00051443981538 0.99767033349 0.00038589863942 0.00038589863942 
0.00038589863942 0.00038589863942 0.00040017331516 0.00038589863942 0.9973891911 0.00043246859401 0.00043246859401 0.00043246859401 0.00043246859401 
0.00044846592676 0.00043246859401 0.99786296581 0.00035617236488 0.00035617236488 0.00035617236488 0.00035617236488 0.00035617236488 0.00035617236488 
0.99522919129 0.00079513478459 0.00079513478459 0.00079513478459 0.00079513478459 0.00079513478459 0.00079513478459 0.99397046352 0.001004922746 
0.001004922746 0.001004922746 0.001004922746 0.001004922746 0.001004922746 0.9951877995 0.00080203341693 0.00080203341693 0.00080203341693 
0.00080203341693 0.00080203341693 0.00080203341693 0.99538756857 0.00076873857193 0.00076873857193 0.00076873857193 0.00076873857193 0.00076873857193 
0.00076873857193 0.99597675054 0.00067054157737 0.00067054157737 0.00067054157737 0.00067054157737 0.00067054157737 0.00067054157737 0.99548292229 
0.00075056038828 0.00075056038828 0.00075056038828 0.00075056038828 0.00076427576898 0.00075056038828 0.99441396428 0.00092501704483 0.00092501704483 
0.00092501704483 0.00092501704483 0.00096095049804 0.00092501704483 0.9921184152 0.0012037150085 0.0012037150085 0.0012037150085 0.0012037150085 
0.0018630097563 0.0012037150085 0.9540330758 0.00091031186024 0.00091031186024 0.00091031186024 0.00091031186024 0.041415364897 0.00091031186024 
0.96008103145 0.00093448267296 0.00093448267296 0.00093448267296 0.00093448267296 0.035246555184 0.00093448267296 0.95809204523 0.00093870008231 
0.00093870008231 0.00093870008231 0.00093870008231 0.037214454358 0.00093870008231 0.98561777539 0.00088574934207 0.00088574934207 0.00088574934207 
0.00088574934207 0.0099534779011 0.00088574934207 0.99359948261 0.00075328926213 0.00075328926213 0.00075328926213 0.00075328926213 0.0026340710824 
0.00075328926213 0.99643150756 0.00059474873933 0.00059474873933 0.00059474873933 0.00059474873933 0.00059474873933 0.00059474873933 0.99689227047 
0.00051795492145 0.00051795492145 0.00051795492145 0.00051795492145 0.00051795492145 0.00051795492145 0.99716729667 0.00047211722158 0.00047211722158 
0.00047211722158 0.00047211722158 0.00047211722158 0.00047211722158 0.99548537104 0.00075243816033 0.00075243816033 0.00075243816033 0.00075243816033 
0.00075243816033 0.00075243816033 0.99630048448 0.00061658592027 0.00061658592027 0.00061658592027 0.00061658592027 0.00061658592027 0.00061658592027 
0.99626394012 0.00062267664606 0.00062267664606 0.00062267664606 0.00062267664606 0.00062267664606 0.00062267664606 0.99593102581 0.00067816236525 
0.00067816236525 0.00067816236525 0.00067816236525 0.00067816236525 0.00067816236525 0.99581320346 0.00069779942375 0.00069779942375 0.00069779942375 
0.00069779942375 0.00069779942375 0.00069779942375 0.99572735667 0.00071210722136 0.00071210722136 0.00071210722136 0.00071210722136 0.00071210722136 
0.00071210722136 0.99621748684 0.00063041885953 0.00063041885953 0.00063041885953 0.00063041885953 0.00063041885953 0.00063041885953 0.99684654165 
0.00052557639086 0.00052557639086 0.00052557639086 0.00052557639086 0.00052557639086 0.00052557639086 0.99585098026 0.00068918263374 0.00068918263374 
0.00068918263374 0.00068918263374 0.00070310656959 0.00068918263374 0.99519037674 0.00066809000615 0.00066809000615 0.00066809000615 0.00066809000615 
0.0014691732303 0.00066809000615 0.99296188615 0.00073837907075 0.00073837907075 0.00073837907075 0.00073837907075 0.003346218501 0.00073837907075 
0.9919344832 0.00099178741693 0.00099178741693 0.00099178741693 0.00099178741693 0.0031065797147 0.00099178741693 0.98190974279 0.0009460049713 
0.0009460049713 0.0009460049713 0.0009460049713 0.013360232356 0.0009460049713 0.96222476617 0.00085641349679 0.00085641349679 0.00085641349679 
0.00085641349679 0.03349316635 0.00085641349679 0.9820524386 0.00079866096949 0.00079866096949 0.00079866096949 0.00079866096949 0.01395425655 
0.00079866096949 0.98367697432 0.00081296641777 0.00081296641777 0.00081296641777 0.00081296641777 0.012258193588 0.00081296641777 0.96935980475 
0.00087767071364 0.00087767071364 0.00087767071364 0.00087767071364 0.026251841683 0.00087767071364 0.94460176818 0.00090194960413 0.00090194960413 
0.00090194960413 0.00090194960413 0.050888483798 0.00090194960413 0.97384049202 0.00085329859055 0.00085329859055 0.00085329859055 0.00085329859055 
0.021893015027 0.00085329859055 0.98496000115 0.00078321668513 0.00078321668513 0.00078321668513 0.00078321668513 0.011123915421 0.00078321668513 
0.99120511623 0.00074350117823 0.00074350117823 0.00074350117823 0.00074350117823 0.0050773778764 0.00074350117823 0.99534923366 0.00058848141656 
0.00058848141656 0.00058848141656 0.00058848141656 0.001708359258 0.00058848141656 0.99663726539 0.00051842340258 0.00051842340258 0.00051842340258 
0.00051842340258 0.00077061759913 0.00051842340258 0.99688036888 0.00048094481572 0.00048094481572 0.00048094481572 0.00048094481572 0.00071490703808 
0.00048094481572 0.99700642092 0.00049892984609 0.00049892984609 0.00049892984609 0.00049892984609 0.00049892984609 0.00049892984609 0.99705864911 
0.00049022514877 0.00049022514877 0.00049022514877 0.00049022514877 0.00049022514877 0.00049022514877 0.99695455153 0.00050757474512 0.00050757474512 
0.00050757474512 0.00050757474512 0.00050757474512 0.00050757474512 0.99694932608 0.0005084456535 0.0005084456535 0.0005084456535 0.0005084456535 
0.0005084456535 0.0005084456535 0.99474523618 0.00075483967566 0.00075483967566 0.00075483967566 0.00075483967566 0.0014805654418 0.00075483967566 
0.99463551615 0.00088685197628 0.00088685197628 0.00088685197628 0.00088685197628 0.00093022396924 0.00088685197628 0.99422164753 0.00095953467981 
0.00095953467981 0.00095953467981 0.00095953467981 0.00098067906747 0.00095953467981 0.99581129946 0.00069811675707 0.00069811675707 0.00069811675707 
0.00069811675707 0.00069811675707 0.00069811675707 0.99455907643 0.00090682059425 0.00090682059425 0.00090682059425 0.00090682059425 0.00090682059425 
0.00090682059425 0.99464678675 0.00089220220867 0.00089220220867 0.00089220220867 0.00089220220867 0.00089220220867 0.00089220220867 0.99643120024 
0.00059479996029 0.00059479996029 0.00059479996029 0.00059479996029 0.00059479996029 0.00059479996029 0.99662624839 0.00056229193504 0.00056229193504 
0.00056229193504 0.00056229193504 0.00056229193504 0.00056229193504 0.99656755554 0.00057207407671 0.00057207407671 0.00057207407671 0.00057207407671 
0.00057207407671 0.00057207407671 0.99686250248 0.00052291625253 0.00052291625253 0.00052291625253 0.00052291625253 0.00052291625253 0.00052291625253 
0.99689907881 0.00051682019895 0.00051682019895 0.00051682019895 0.00051682019895 0.00051682019895 0.00051682019895 0.99457209904 0.00055021803979 
0.00055021803979 0.00055021803979 0.00055021803979 0.0026768107613 0.00055021803979 0.99161878428 0.00054119203148 0.00054119203148 0.00054119203148 
0.00054119203148 0.0056752555659 0.00054119203148 0.96787630754 0.00060064628284 0.00060064628284 0.00060064628284 0.00060064628284 0.029120461045 
0.00060064628284 0.98415342323 0.000620537994 0.000620537994 0.000620537994 0.000620537994 0.012743886798 0.000620537994 0.95783167983 
0.0010178053536 0.0010178053536 0.0010178053536 0.0010178053536 0.037079293401 0.0010178053536 0.9525140335 0.0014690481507 0.0014690481507 
0.0014690481507 0.0014690481507 0.040140725749 0.0014690481507 0.96518955217 0.0012836503569 0.0012836503569 0.0012836503569 0.0012836503569 
0.028392196046 0.0012836503569 0.98306258106 0.00093535068487 0.00093535068487 0.00093535068487 0.00093535068487 0.012260665516 0.00093535068487 
0.97500750765 0.0010421144077 0.0010421144077 0.0010421144077 0.0010421144077 0.019781920316 0.0010421144077 0.98540999504 0.00082173662263 
0.00082173662263 0.00082173662263 0.00082173662263 0.010481321848 0.00082173662263 0.97947426955 0.00088311710067 0.00088311710067 0.00088311710067 
0.00088311710067 0.016110144942 0.00088311710067 0.9864508727 0.00079993607255 0.00079993607255 0.00079993607255 0.00079993607255 0.0095494469402 
0.00079993607255 0.98074355881 0.00079045812255 0.00079045812255 0.00079045812255 0.00079045812255 0.015304150576 0.00079045812255 0.99086959675 
0.00061725244768 0.00061725244768 0.00061725244768 0.00061725244768 0.0060441410115 0.00061725244768 0.99616243003 0.00049681225981 0.00049681225981 
0.00049681225981 0.00049681225981 0.0013535086747 0.00049681225981 0.99202487876 0.0005620420051 0.0005620420051 0.0005620420051 0.0005620420051 
0.0051649112179 0.0005620420051 0.98362167686 0.00062565364642 0.00062565364642 0.00062565364642 0.00062565364642 0.013250054912 0.00062565364642 
0.99647777077 0.00051548862455 0.00051548862455 0.00051548862455 0.00051548862455 0.00094478611101 0.00051548862455 0.99653692407 0.00050683136384 
0.00050683136384 0.00050683136384 0.00050683136384 0.00092891910777 0.00050683136384 0.99695620153 0.00050729974493 0.00050729974493 0.00050729974493 
0.00050729974493 0.00050729974493 0.00050729974493 0.99695297306 0.00050783782288 0.00050783782288 0.00050783782288 0.00050783782288 0.00050783782288 
0.00050783782288 0.99709286944 0.00048452176017 0.00048452176017 0.00048452176017 0.00048452176017 0.00048452176017 0.00048452176017 0.99700329364 
0.00049945105925 0.00049945105925 0.00049945105925 0.00049945105925 0.00049945105925 0.00049945105925 0.99116440636 0.00080560927444 0.00080560927444 
0.00080560927444 0.00080560927444 0.0048075472659 0.00080560927444 0.97861752769 0.00078401102166 0.00078401102166 0.00078401102166 0.00078401102166 
0.0174624172 0.00078401102166 0.99224207327 0.00094709775028 0.00094709775028 0.00094709775028 0.00094709775028 0.0030224379743 0.00094709775028 
0.99224068225 0.00095180881088 0.00095180881088 0.00095180881088 0.00095180881088 0.0030002736948 0.00095180881088 0.99553839641 0.00074242266794 
0.00074242266794 0.00074242266794 0.00074242266794 0.00074949025422 0.00074242266794 0.99661341822 0.00056353618827 0.00056353618827 0.00056353618827 
0.00056353618827 0.00056890084213 0.00056353618827 0.99699459779 0.00050090036761 0.00050090036761 0.00050090036761 0.00050090036761 0.00050090036761 