# vtk DataFile Version 5.1
vtk output
ASCII
DATASET POLYDATA
POINTS 9366 float
-22.3356 65.3718 0.0650246 -22.5814 65.2726 -0.0779319 -22.2661 65.3562 -0.0824325 
-22.0603 65.2924 -0.190492 -22.006 65.3394 0.102039 -21.7544 65.2356 -0.0993994 
-22.5861 65.1838 -0.300217 -22.3586 65.2657 -0.26261 -22.1733 65.1741 -0.383044 
-21.498 65.0511 -0.18866 -21.8414 65.0905 -0.361391 -21.4961 64.7813 -0.444954 
-22.4891 65.0283 -0.478665 -22.1318 64.9576 -0.56022 -21.8323 64.8283 -0.583728 
-31.5556 66.173 4.08837 -31.7687 66.2937 4.0627 -31.5211 66.4072 3.8443 
-31.0359 66.2783 3.75184 -31.2508 65.9439 4.10517 -30.5359 66.1209 3.69265 
-30.7713 65.8797 3.96425 -30.0744 65.9822 3.63779 -30.262 65.6134 3.94783 
-29.8206 65.699 3.76111 -31.9021 66.5081 3.89929 -32.2026 66.6205 3.8517 
-31.9447 66.7318 3.57393 -31.3828 66.6161 3.46561 -30.8449 66.4616 3.40642 
-30.3376 66.2845 3.394 -29.9304 66.1119 3.40693 -29.4512 65.4523 3.72234 
-29.6338 65.8372 3.5374 -29.2365 65.5601 3.48403 -32.9177 66.9032 3.66308 
-33.1925 66.9466 3.65218 -32.9689 67.0624 3.36357 -32.379 66.9868 3.24387 
-32.5444 66.8237 3.6542 -31.7971 66.8697 3.14316 -31.219 66.7115 3.06741 
-30.6286 66.5165 3.05101 -30.0559 66.2651 3.13544 -30.2904 66.4098 2.89768 
-29.6348 66.001 3.27278 -29.4109 65.8138 3.37726 -33.9529 67.1374 3.48125 
-34.2198 67.1629 3.46667 -34.0027 67.2686 3.19061 -33.4341 67.2418 3.05348 
-33.5715 67.0927 3.46742 -32.8455 67.1755 2.92551 -32.2571 67.0624 2.80462 
-31.6678 66.9021 2.70501 -31.062 66.6949 2.64673 -30.5746 66.5217 2.73963 
-30.6536 66.4812 2.43133 -34.4413 67.2676 3.28057 -34.8031 67.2836 3.2481 
-34.5722 67.373 2.93655 -33.947 67.3659 2.7678 -33.3463 67.31 2.61878 
-32.7551 67.2068 2.47799 -32.1677 67.0516 2.34794 -31.5735 66.8441 2.2454 
-31.0527 66.6309 2.2506 -31.2763 66.6575 1.98328 -36.2494 67.2905 3.11974 
-36.516 67.2726 3.09577 -36.3031 67.3804 2.84696 -35.7305 67.4201 2.74061 
-35.8878 67.3046 3.10499 -35.1088 67.4392 2.63174 -35.2585 67.3389 3.05949 
-34.483 67.434 2.48947 -33.8729 67.3918 2.3311 -33.2792 67.3045 2.17399 
-32.698 67.1653 2.01816 -32.1197 66.9655 1.86693 -31.6195 66.7677 1.8389 
-31.8354 66.769 1.57788 -36.7353 67.3267 2.90413 -37.0777 67.2955 2.83557 
-36.8193 67.3885 2.58577 -36.2432 67.4358 2.46043 -35.6398 67.4528 2.33977 
-35.0223 67.4486 2.20784 -34.4102 67.4175 2.05734 -33.816 67.3484 1.89285 
-33.2429 67.2348 1.72378 -32.6908 67.0687 1.54688 -32.2042 66.8628 1.42528 
-32.517 66.9122 1.22155 -24.4956 64.8515 1.71734 -24.7849 64.7557 1.49911 
-24.3148 64.9254 1.54302 -23.9113 65.0393 1.47047 -24.0855 64.8627 1.87571 
-23.5431 65.0354 1.67693 -37.2901 67.3215 2.62763 -37.6357 67.2682 2.54075 
-37.3608 67.3481 2.30447 -36.7876 67.3943 2.18744 -36.1905 67.4039 2.06067 
-35.572 67.3969 1.93285 -34.9518 67.3775 1.79494 -34.3525 67.3266 1.63276 
-33.7844 67.2403 1.4547 -33.2467 67.1184 1.27432 -32.8292 67.002 1.18539 
-33.033 66.9666 0.975929 -24.8611 64.6422 1.14282 -24.3127 64.9167 1.17123 
-23.8473 65.0952 1.22164 -23.2146 65.1324 1.5588 -23.3793 65.1716 1.28448 
-22.7907 65.2787 1.08476 -22.7967 65.1488 1.52306 -22.3347 65.2564 1.27235 
-19.2182 64.4936 1.33337 -19.5237 64.673 1.37706 -19.5609 64.6053 1.04028 
-19.1913 64.3996 1.14245 -37.8339 67.2689 2.32172 -38.1709 67.1922 2.20838 
-37.8836 67.2669 2.00929 -37.3464 67.3075 1.9106 -36.7682 67.3011 1.79064 
-36.1396 67.2672 1.65437 -35.4964 67.256 1.5383 -34.8777 67.2368 1.40179 
-34.315 67.163 1.20701 -33.7695 67.0767 1.01659 -33.3354 67.0031 0.925589 
-33.5203 66.9254 0.730152 -24.696 64.6316 0.854257 -24.2205 64.8529 0.708098 
-23.7826 65.0936 0.960353 -23.2555 65.2285 0.845247 -22.7614 65.3174 0.708317 
-22.0295 65.3017 1.15371 -22.1946 65.3353 0.851134 -21.5525 65.3028 0.81773 
-21.6977 65.2773 1.12281 -21.0139 65.192 0.818799 -21.186 65.1966 1.13247 
-20.5016 65.0069 0.799545 -20.6372 65.0612 1.1492 -20.0281 64.7574 0.746923 
-20.0398 64.8567 1.17194 -19.6605 64.5114 0.708 -19.2347 64.2328 0.877587 
-38.3619 67.1563 1.96558 -38.783 66.9974 1.70192 -38.2903 67.1626 1.73874 
-37.9054 67.1902 1.6358 -37.389 67.1596 1.52013 -36.7651 67.0948 1.40554 
-36.0439 66.9867 1.22306 -35.3512 67.0869 1.21574 -34.8528 67.0136 1.01945 
-34.2912 66.9125 0.756738 -33.8251 66.9213 0.694208 -33.9527 66.8192 0.54518 
-24.0527 64.772 0.315238 -23.6679 65.0611 0.571908 -23.1254 65.2108 0.440199 
-22.4867 65.3254 0.339305 -21.8435 65.3292 0.467025 -21.3457 65.2602 0.541217 
-20.9225 65.1099 0.484982 -20.4524 64.8525 0.436173 -19.9784 64.4564 0.356272 
-19.545 64.2893 0.553576 -19.6327 64.1543 0.358828 -39.0252 66.8953 1.2533 
-38.4897 67.0455 1.40744 -38.0684 67.0048 1.24219 -37.4938 66.8857 1.13757 
-36.7957 66.7939 1.08601 -37.3156 66.5564 0.925186 -36.366 66.7305 1.00987 
-36.0312 66.5479 0.853843 -35.4504 66.7907 0.909062 -34.9081 66.7093 0.668738 
-34.5044 66.6703 0.475887 -34.1023 66.6171 0.337424 -23.9574 64.6083 -0.04518 
-23.5537 64.9573 0.168522 -23.0307 65.1174 0.0411559 -21.4047 65.1692 0.164809 
-20.8709 64.9464 0.187843 -20.5212 64.6244 0.0748802 -20.1949 64.2411 -0.0100086 
-19.7497 63.8286 0.0879532 -39.18 66.8289 0.976208 -38.8116 66.8522 0.933129 
-38.3012 66.7321 0.833423 -37.823 66.5775 0.843766 -38.2266 66.4258 0.655556 
-35.4815 66.2688 0.513004 -34.7899 66.4198 0.335406 -34.4335 66.5 0.273641 
-23.9574 64.3828 -0.327287 -23.4899 64.7106 -0.278845 -22.9035 64.9793 -0.337755 
-21.0662 64.7642 -0.162981 -20.6268 64.2456 -0.293888 -20.1758 63.8352 -0.240966 
-20.4618 63.6937 -0.49522 -39.3327 66.7456 0.762684 -39.7805 66.5213 0.443328 
-39.2994 66.6882 0.539325 -39.0187 66.5995 0.421079 -38.6249 66.4575 0.493015 
-38.9563 66.3286 0.243598 -23.8285 64.2649 -0.540936 -23.5321 64.3128 -0.659401 
-23.1935 64.6075 -0.573612 -22.819 64.6657 -0.665942 -22.4096 64.6978 -0.727909 
-22.047 64.65 -0.748527 -21.6855 64.4392 -0.742886 -21.1656 64.3045 -0.566108 
-20.8032 63.8689 -0.60402 -39.9565 66.3866 -0.0541275 -39.5532 66.5479 0.179186 
-39.472 66.4541 -0.037542 -39.2433 66.3694 0.0514872 -23.1962 64.1451 -0.887487 
-22.6867 64.295 -0.917668 -22.2602 64.3317 -0.920017 -21.9777 64.3682 -0.877416 
-40.0794 66.2617 -0.420799 -39.7843 66.4192 -0.2117 -39.7061 66.3566 -0.334951 
-39.5536 66.1901 -0.294625 -40.1472 66.1442 -0.661636 -39.9333 66.2855 -0.526447 
-39.7961 66.2453 -0.515599 -39.9452 66.1777 -0.671433 -40.0781 66.1316 -0.732994 
-33.0789 65.1487 4.9216 -33.3404 65.3255 4.89663 -32.9676 65.7037 4.61949 
-32.3579 65.7939 4.45426 -32.6156 65.2304 4.77398 -31.7739 65.9062 4.29068 
-32.014 65.244 4.62998 -31.4595 65.7684 4.30342 -31.5917 65.5285 4.43604 
-31.3 65.5445 4.34025 -33.8768 65.7701 4.75068 -34.1329 65.811 4.75479 
-33.8781 66.132 4.48908 -33.2857 66.1957 4.35599 -33.5427 65.7144 4.72093 
-32.7158 66.2224 4.25571 -32.1694 66.2914 4.12878 -30.8754 65.3026 4.26686 
-30.3451 65.0849 4.2047 -29.7673 65.4133 3.9006 -29.9275 65.1161 4.07629 
-29.4652 65.0195 3.93692 -34.8652 66.0743 4.63235 -35.1485 66.0812 4.63301 
-34.9011 66.3811 4.35912 -34.2759 66.4983 4.21319 -34.4805 66.0616 4.60317 
-33.6675 66.5629 4.10289 -33.0363 66.6474 3.94984 -32.5269 66.5536 3.97555 
-28.8942 65.3681 3.35924 -28.9628 65.0145 3.66131 -28.667 65.0997 3.42739 
-16.9338 63.4791 3.84236 -17.1402 63.6362 3.83417 -17.1151 63.6452 3.57089 
-16.8889 63.4363 3.69737 -35.9401 66.2387 4.47959 -36.232 66.2251 4.46248 
-35.9871 66.5147 4.19066 -35.3579 66.6502 4.08508 -35.5365 66.2596 4.46873 
-34.7286 66.7724 3.95705 -34.0719 66.9082 3.77606 -33.5057 66.8577 3.79684 
-29.9982 66.2484 2.86036 -29.6525 66.0338 2.9764 -29.2166 65.72 3.16461 
-28.8197 65.4451 3.14426 -28.5299 65.1512 3.19378 -17.3406 63.7921 3.63823 
-17.6009 63.903 3.55773 -17.4774 63.8845 3.3251 -17.2199 63.6555 3.22011 
-16.9038 63.3488 3.48659 -37.0214 66.3284 4.23981 -37.2989 66.3059 4.19148 
-37.0352 66.5702 3.96218 -36.4464 66.7427 3.86635 -36.622 66.368 4.26172 
-35.8231 66.8752 3.78639 -35.2078 66.974 3.71446 -34.6479 67.0948 3.56732 
-30.2565 66.3384 2.63284 -29.8273 66.053 2.60709 -29.3157 65.7625 2.7714 
-29.5124 65.7412 2.43137 -28.8782 65.494 2.92065 -28.6362 65.3198 3.01583 
-17.7986 64.0157 3.32036 -18.1573 64.1397 3.07602 -17.8078 64.0473 3.05645 
-17.5839 63.8959 2.94198 -17.3332 63.6569 2.90862 -17.0181 63.2759 3.08948 
-37.4879 66.4443 3.98583 -37.8248 66.424 3.87732 -37.5163 66.6817 3.67364 
-36.9511 66.8879 3.56641 -36.3042 67.0914 3.41756 -35.6078 67.1514 3.42022 
-35.1054 67.1924 3.40583 -31.0247 66.5533 2.04034 -30.7546 66.3709 2.04098 
-30.2744 66.1739 2.26212 -29.8709 65.8965 2.26847 -26.255 64.3348 2.67394 
-26.5889 64.388 2.49304 -25.9677 64.4191 2.35551 -25.4363 64.4366 2.46054 
-25.7851 64.22 2.80209 -24.9576 64.5526 2.31402 -25.0513 64.2895 2.68618 
-24.6313 64.466 2.49168 -18.3349 64.2419 2.78572 -18.0709 64.1212 2.6572 
-17.6432 63.7678 2.54717 -17.2801 63.4859 2.75622 -17.3718 63.4577 2.5627 
-38.0024 66.5483 3.63916 -38.3961 66.556 3.38593 -37.9163 66.7505 3.39704 
-37.5034 66.9452 3.28335 -36.9584 67.1509 3.16005 -31.5864 66.6767 1.63059 
-31.3252 66.5098 1.63279 -31.0472 66.4614 1.84813 -26.4291 64.3686 2.10722 
-25.9347 64.3828 1.86621 -25.4082 64.5443 2.10148 -24.7938 64.7115 1.92742 
-24.1917 64.417 2.52752 -24.4205 64.6451 2.22669 -23.8927 64.6384 2.26448 
-18.4805 64.3026 2.57926 -18.7906 64.3987 2.44867 -18.5777 64.3161 2.21553 
-18.1351 64.0229 2.18936 -17.835 63.7202 2.14599 -17.4911 63.3341 2.29952 
-38.5298 66.6882 3.10991 -38.1444 66.8876 3.014 -37.5511 67.1529 2.87682 
-32.2289 66.7021 1.05381 -31.8483 66.5949 1.23531 -31.589 66.5717 1.44532 
-25.8021 64.2151 1.41884 -25.3357 64.5476 1.69144 -23.1401 65.0349 1.76534 
-23.4215 64.809 2.05934 -22.8587 65.0269 1.78884 -22.9594 64.8958 1.96908 
-22.5496 64.9162 1.9101 -19.023 64.4843 2.16425 -19.4657 64.6092 2.01643 
-19.0947 64.4826 1.73844 -18.5554 64.1823 1.83432 -18.1877 63.7653 1.73712 
-17.783 63.4844 1.97089 -17.8827 63.3831 1.76676 -38.6435 66.7416 2.91902 
-38.9594 66.6467 2.77422 -38.6459 66.8717 2.60685 -38.1034 67.1096 2.5552 
-32.6659 66.8028 0.887661 -32.3206 66.5778 0.75215 -31.879 66.3481 0.810656 
[...]
CELL_DATA 18728
FIELD FieldData 2
plab 7 18728 double
0.62251023509 0.00077581801326 0.0007755586422 0.064013027806 0.30995764868 0.0011921531257 0.0007755586422 0.66243569225 0.00078338434103 
0.00078312606582 0.066286898178 0.26793032382 0.00099744928301 0.00078312606582 0.64914477958 0.00078679394669 0.00078662176322 0.087698606006 
0.25959567791 0.001200899028 0.00078662176322 0.64225905599 0.00080119630017 0.00080111020844 0.11544812968 0.23847572359 0.0014136740135 
0.00080111020844 0.5928308577 0.00076827515584 0.00076810187652 0.079437286998 0.32404272598 0.0013846504076 0.00076810187652 0.55511486157 
0.00076955722217 0.00076947003458 0.084632828564 0.35593867889 0.0020051336897 0.00076947003458 0.60836754837 0.00076271747637 0.00076263138464 
0.098853266268 0.28911434242 0.0013768626971 0.00076263138464 0.5688110542 0.00077200768901 0.00077200768901 0.12124839052 0.30603828057 
0.0015862516444 0.00077200768901 0.55113223565 0.00079828276236 0.00079828276236 0.15724172637 0.28773217646 0.0014990132371 0.00079828276236 
0.58380300624 0.0008033949032 0.0008033949032 0.1625961258 0.24968828398 0.0015023992752 0.0008033949032 0.56162287381 0.00081046007382 
0.00081046007382 0.2070678367 0.22760584847 0.0012720607979 0.00081046007382 0.48469803348 0.000838573128 0.000838573128 0.28013176087 
0.23128927424 0.0013652120295 0.000838573128 0.5243037881 0.00079663588049 0.00079663588049 0.09891449784 0.37217824435 0.0022135620674 
0.00079663588049 0.49008280882 0.00085036250253 0.00085036250253 0.14451514481 0.36093472981 0.0019162290563 0.00085036250253 0.52246329006 
0.0008046440268 0.0008046440268 0.11611408052 0.3572062296 0.0018024677327 0.0008046440268 0.4540062546 0.00085959303281 0.00085959303281 
0.24400852996 0.29770941562 0.0016970207195 0.00085959303281 0.50236328969 0.00083304877501 0.00083304877501 0.17965534202 0.31388039987 
0.0016018220977 0.00083304877501 0.43049289348 0.00086565526214 0.00086565526214 0.30365697479 0.26155475517 0.001698410771 0.00086565526214 
0.97199408823 0.00073401573593 0.00073401573593 0.021456416023 0.00073401573593 0.0036134328073 0.00073401573593 0.9715277792 0.00076183201864 
0.00076183201864 0.021489715848 0.00076183201864 0.0039351768749 0.00076183201864 0.97109065311 0.00076061273156 0.00076061273156 0.02148849656 
0.00076091802789 0.004378094106 0.00076061273156 0.97005237811 0.0007854208574 0.0007854208574 0.021507821144 0.00078610220934 0.0052974359615 
0.0007854208574 0.96834740966 0.00076078163993 0.00076078163993 0.021477698384 0.00082875147523 0.0070637955572 0.00076078163993 0.96766244998 
0.00078031128968 0.00078031128968 0.021492701145 0.00085163835282 0.0076522766509 0.00078031128968 0.96697512681 0.00075661001549 0.00075661001549 
0.021468999871 0.00095920505448 0.0083268382188 0.00075661001549 0.96651550749 0.00077162218577 0.00077162218577 0.021490792336 0.0011223010989 
0.0085565325146 0.00077162218577 0.97251379165 0.00075343742489 0.00075343742489 0.021466783934 0.00075343742489 0.0030056747192 0.00075343742489 
0.97066269813 0.00079870575821 0.00079870575821 0.021521106045 0.00079905139892 0.0046210271467 0.00079870575821 0.97215326057 0.00075304049935 
0.00075304049935 0.021470913897 0.00075304049935 0.0033636635326 0.00075304049935 0.97254496988 0.00071198970082 0.00071198970082 0.021429863099 
0.00071198970082 0.0031772082161 0.00071198970082 0.97015158492 0.00077246547805 0.00077246547805 0.021500349307 0.00077311641509 0.0052575529266 
0.00077246547805 0.96722181965 0.00079296424131 0.00079296424131 0.02152084807 0.00081982348048 0.0080586160715 0.00079296424131 0.9664559194 
0.00075647227736 0.00075647227736 0.021478872564 0.00085027435917 0.0089455168466 0.00075647227736 0.95585355852 0.00079277430278 0.00079277430278 
0.021503640233 0.0014154632155 0.018849015119 0.00079277430278 0.95705772562 0.00077338239115 0.00077338239115 0.021478764779 0.0015015070332 
0.017641855397 0.00077338239115 0.93988609391 0.00080373806208 0.00080373806208 0.021488921345 0.0032739255944 0.032939844963 0.00080373806208 
0.94286017815 0.00078639694424 0.00078639694424 0.021478587694 0.0039356695888 0.029366373734 0.00078639694424 0.95957219054 0.0007710534436 
0.0007710534436 0.021490223594 0.0023263470721 0.014298078464 0.0007710534436 0.95633483592 0.00080170388724 0.00080170388724 0.021532767682 
0.0037898673142 0.01593741742 0.00080170388724 0.94031423694 0.00082906163552 0.00082906163552 0.021558491713 0.0089883932477 0.026651693197 
0.00082906163552 0.9735761169 0.00070037664383 0.00070037664383 0.021405938761 0.00070037664383 0.0022164377656 0.00070037664383 0.97394831635 
0.0006940282625 0.0006940282625 0.021408331425 0.0006940282625 0.0018672391726 0.0006940282625 0.97350553483 0.00073210689672 0.00073210689672 
0.021446410059 0.00073210689672 0.0021196275272 0.00073210689672 0.97072815786 0.00084403921763 0.00084403921763 0.021561912616 0.00084403921763 
0.0043337726523 0.00084403921763 0.97257720818 0.00077848684871 0.00077848684871 0.021491833358 0.00077848684871 0.0028170110649 0.00077848684871 
0.97251322698 0.00075199659505 0.00075199659505 0.021465343104 0.00075199659505 0.0030134435313 0.00075199659505 0.96914333553 0.00085232575373 
0.00085232575373 0.02157472604 0.00085267139443 0.0058722897781 0.00085232575373 0.96278301254 0.0009063233875 0.0009063233875 0.021634207216 
0.00090779274188 0.011956017339 0.0009063233875 0.96137260989 0.00087320215524 0.00087320215524 0.021601085984 0.00090087981176 0.013505817852 
0.00087320215524 0.94000302999 0.00092435370053 0.00092435370053 0.021652237529 0.00098260170819 0.034589069673 0.00092435370053 0.93524987888 
0.00088041781201 0.00088041781201 0.021596767284 0.0014667342332 0.039045366164 0.00088041781201 0.90439981673 0.00095543336045 0.00095543336045 
0.021660248476 0.0031637485118 0.067909886202 0.00095543336045 0.87378121485 0.0010001271827 0.0010001271827 0.021702978137 0.0028631158388 
0.098652309626 0.0010001271827 0.88397795463 0.00095409099842 0.00095409099842 0.021613829715 0.0090844000366 0.082461542619 0.00095409099842 
0.90783186467 0.00089814552214 0.00089814552214 0.02157727799 0.0048848960553 0.063011524722 0.00089814552214 0.90166878442 0.00091179579891 
0.00091179579891 0.021599697742 0.011485064762 0.062511065676 0.00091179579891 0.90947175004 0.00088785279875 0.00088785279875 0.021554598983 
0.008578232044 0.057731860533 0.00088785279875 0.91837638208 0.00085028476267 0.00085028476267 0.021568777849 0.012137343636 0.045366642147 
0.00085028476267 0.96890438402 0.00083009357768 0.00083009357768 0.021522046839 0.00083009357768 0.0062531948301 0.00083009357768 0.96973233429 
0.00080507416181 0.00080507416181 0.021495090805 0.00080507416181 0.0055522782584 0.00080507416181 0.96936825144 0.00084900283244 0.00084900283244 
0.021537082858 0.00084900283244 0.0056986543741 0.00084900283244 0.97067693907 0.00094729830461 0.00094729830461 0.021652860421 0.00094729830461 
0.0038810072878 0.00094729830461 0.97133042236 0.00078553236641 0.00078553236641 0.021482353437 0.00078553236641 0.0040450947355 0.00078553236641 
0.97252059654 0.00072046213565 0.00072046213565 0.021417283207 0.00072046213565 0.0031802717153 0.00072046213565 0.97233413726 0.00091469924513 
0.00091469924513 0.021629002408 0.00091469924513 0.0023780633508 0.00091469924513 0.96955870079 0.0011306505191 0.0011306505191 0.021844953682 
0.0011306505191 0.0040737434528 0.0011306505191 0.96888104803 0.0010136105396 0.0010136105396 0.021732440591 0.0010136105396 0.0053320692166 
0.0010136105396 0.95927601121 0.0012467476921 0.0012467476921 0.021970104632 0.0012467476921 0.013766893389 0.0012467476921 0.95476279805 
0.001131174004 0.001131174004 0.021859057833 0.0011322977176 0.018852324386 0.001131174004 0.91337482584 0.0012433707377 0.0012433707377 
0.021971254567 0.0012497677214 0.059674039661 0.0012433707377 0.90002546043 0.0010696716665 0.0010696716665 0.021797555495 0.0011069846421 
0.073860984435 0.0010696716665 0.84876801089 0.0011379490035 0.0011379490035 0.02185934392 0.0012541704888 0.12470462769 0.0011379490035 
0.79251975155 0.0011848591913 0.0011848591913 0.02189275559 0.0012793105755 0.18075360471 0.0011848591913 0.84979662758 0.0010634433264 
0.0010634433264 0.021771339725 0.0013582571736 0.12388344554 0.0010634433264 0.96587664148 0.00096009205291 0.00096009205291 0.02164742503 
0.00096009205291 0.0086355652778 0.00096009205291 0.96424435861 0.001079608277 0.001079608277 0.02176962492 0.001079608277 0.0096675833586 
0.001079608277 0.96622636917 0.0009506134951 0.0009506134951 0.021642566757 0.0009506134951 0.0083286100926 0.0009506134951 0.96827442564 
0.00087509860109 0.00087509860109 0.021567051863 0.00087509860109 0.0066581280948 0.00087509860109 0.966075906 0.001029666169 0.001029666169 
0.021717746194 0.001029666169 0.008087683131 0.001029666169 0.96428733558 0.0011847771374 0.0011847771374 0.021881598208 0.0011847771374 
0.0090919576598 0.0011847771374 0.96692619773 0.0011658797391 0.0011658797391 0.021871441856 0.0011658797391 0.0065388414553 0.0011658797391 
0.9607101601 0.001405495135 0.001405495135 0.022119798298 0.001405495135 0.011548061063 0.001405495135 0.96168546497 0.0014028649744 
0.0014028649744 0.022117168137 0.0014028649744 0.010585906998 0.0014028649744 0.94098659189 0.0015169315872 0.0015169315872 0.022230278096 
0.0015169315872 0.030715403661 0.0015169315872 0.93925479089 0.0014778542844 0.0014778542844 0.022195727682 0.0014778542844 0.032638064289 
0.0014778542844 0.88576010133 0.0015424370439 0.0015424370439 0.022264837331 0.0015424440377 0.085805306166 0.0015424370439 0.86439334944 
0.0014235271853 0.0014235271853 0.022151411014 0.0014288074492 0.10775585054 0.0014235271853 0.80856078632 0.0014320271015 0.0014320271015 
0.02215991093 0.0014391352987 0.16354408614 0.0014320271015 0.7636011629 0.0015197677565 0.0015197677565 0.022247651585 0.0015216097879 
0.20807027246 0.0015197677565 0.78527107857 0.0012945529839 0.0012945529839 0.022008938295 0.001310800078 0.18752552411 0.0012945529839 
0.95725750668 0.0010441662328 0.0010441662328 0.021697529627 0.0010441662328 0.016868298761 0.0010441662328 0.95731763731 0.0010645304937 
0.0010645304937 0.02172191538 0.0010645304937 0.016702325336 0.0010645304937 0.9559471382 0.0012092010636 0.0012092010636 0.02186658595 
0.0012092010636 0.017349471596 0.0012092010636 0.95877981277 0.0011554185107 0.0011554185107 0.021818414825 0.0011554185107 0.014780098363 
0.0011554185107 0.95671900983 0.0012767071966 0.0012767071966 0.021951871842 0.0012767071966 0.016222289537 0.0012767071966 0.9544640345 
0.0013374146921 0.0013374146921 0.022029367954 0.0013374146921 0.018156938781 0.0013374146921 0.95933894942 0.0011669025952 0.0011669025952 
0.021854235572 0.0011669025952 0.014139204624 0.0011669025952 0.96450847019 0.0010038501352 0.0010038501352 0.021684626209 0.0010038501352 
0.0097915030601 0.0010038501352 0.95768319738 0.0013007950489 0.0013007950489 0.021990811692 0.0013007950489 0.015122810729 0.0013007950489 
0.9523660288 0.0015320015359 0.0015320015359 0.022220081561 0.0015320015359 0.019285883491 0.0015320015359 0.95713861962 0.0014659257324 
0.0014659257324 0.022162746803 0.0014659257324 0.01483493065 0.0014659257324 0.94465033741 0.0017037492361 0.0017037492361 0.022409311353 
0.0017037492361 0.026125354295 0.0017037492361 0.94558301574 0.0016622160369 0.0016622160369 0.0223765192 0.0016622160369 0.025391600912 
0.0016622160369 0.92398626455 0.001897943245 0.001897943245 0.022612246408 0.001897943245 0.045809716063 0.001897943245 0.91841453583 
0.0017552889559 0.0017552889559 0.022468635465 0.0017552889559 0.052095672877 0.0017552889559 0.86884994038 0.0018520924143 0.0018520924143 
0.022569965812 0.0018520924143 0.10117172415 0.0018520924143 0.83792730688 0.0016783178051 0.0016783178051 0.022400718092 0.0016783247989 
0.13295869682 0.0016783178051 0.77760594986 0.0017453807007 0.0017453807007 0.02247326453 0.001745394594 0.19293924891 0.0017453807007 
0.75605077112 0.0018646634996 0.0018646634996 0.022592547328 0.0018646703991 0.21389802065 0.0018646634996 0.74675231063 0.001603032992 
0.001603032992 0.022330916821 0.0016030539895 0.22450461959 0.001603032992 0.95231117658 0.0011876861384 0.0011876861384 0.021837028039 
0.0011876861384 0.021101050832 0.0011876861384 0.94959439303 0.0014184132428 0.0014184132428 0.022075798129 0.0014184132428 0.022656155869 
0.0014184132428 0.95257933006 0.0012303848364 0.0012303848364 0.02188374823 0.0012303848364 0.020615382366 0.0012303848364 0.95569360084 
0.0010917391563 0.0010917391563 0.021741081057 0.0010917391563 0.018198361479 0.0010917391563 0.9517235535 0.0014144764409 0.0014144764409 
0.022071861328 0.0014144764409 0.020546679405 0.0014144764409 0.94556478836 0.001595830541 0.001595830541 0.022258826855 0.001595830541 
0.025793062618 0.001595830541 0.94772757012 0.0015118438495 0.0015118438495 0.022187008495 0.0015118438495 0.024038045982 0.0015118438495 
0.93653825266 0.0016915393363 0.0016915393363 0.022376935695 0.0016915393363 0.034318654303 0.0016915393363 0.94065477744 0.0016269147803 
0.0016269147803 0.022316931424 0.0016269147803 0.030520632015 0.0016269147803 0.92459607365 0.0019140906545 0.0019140906545 0.02260217068 
0.0019140906545 0.045145393052 0.0019140906545 0.93308816213 0.0018557970533 0.0018557970533 0.022543877078 0.0018557970533 0.036944772581 
0.0018557970533 0.90902214054 0.0021568324166 0.0021568324166 0.022844912442 0.0021568324166 0.059505617349 0.0021568324166 0.91581172501 
0.0020708604028 0.0020708604028 0.022767681474 0.0020708604028 0.053137151905 0.0020708604028 0.88635979077 0.0023331295877 0.0023331295877 
0.023038691705 0.0023331295877 0.081268999171 0.0023331295877 0.89360165198 0.0022017456291 0.0022017456291 0.022916048792 0.0022017456291 
0.074675316711 0.0022017456291 0.85996427624 0.0023840215754 0.0023840215754 0.023097368085 0.0023840215754 0.10740226938 0.0023840215754 
0.84078429334 0.0021770226498 0.0021770226498 0.022894896048 0.0021770226498 0.12761272001 0.0021770226498 0.78723524665 0.0022014908769 
0.0022014908769 0.022923891164 0.0022014908769 0.18103489868 0.0022014908769 0.77187832225 0.0023569137317 0.0023569137317 0.023073830476 
0.0023569137317 0.19562019235 0.0023569137317 0.75979785633 0.0019818264186 0.0019818264186 0.022709710247 0.0019818264186 0.20956512775 
0.0019818264186 0.52934790677 0.0049940904547 0.001157681167 0.011535385484 0.45049243423 0.0013148207239 0.001157681167 0.66408771065 
0.0081612603427 0.0011357540038 0.0088008782186 0.31549480372 0.001183839061 0.0011357540038 0.69445044634 0.0083381275756 0.0011447162594 
0.010647955437 0.28310442924 0.0011696088839 0.0011447162594 0.77934221881 0.011768810125 0.001081644054 0.01441002964 0.1912132298 
0.0011024235237 0.001081644054 0.95222836625 0.0012403063831 0.0012403063831 0.021885626791 0.0012403063831 0.020924781428 0.0012403063831 
0.94436437416 0.0015718865484 0.0015718865484 0.022225249942 0.0015718865484 0.027122829705 0.0015718865484 0.94918052656 0.0013496042706 
0.0013496042706 0.021998946172 0.0013496042706 0.023422110185 0.0013496042706 0.95117826123 0.0012176966429 0.0012176966429 0.021867038544 
0.0012176966429 0.022083913656 0.0012176966429 0.94346715297 0.0016347381001 0.0016347381001 0.022292122987 0.0016347381001 0.027701771647 
0.0016347381001 0.93439905019 0.0018621688183 0.0018621688183 0.022519553705 0.0018621688183 0.035632720832 0.0018621688183 0.93436752512 
0.001827198061 0.001827198061 0.022490194376 0.001827198061 0.035833488265 0.001827198061 0.91677999796 0.0019562157647 0.0019562157647 
0.02263138041 0.0019562157647 0.05276375857 0.0019562157647 0.91678794374 0.0019045437315 0.0019045437315 0.02258994009 0.0019045437315 
0.053003941243 0.0019045437315 0.88857945022 0.0020806487163 0.0020806487163 0.02277066536 0.0020806487163 0.080327289553 0.0020806487163 
0.89227105535 0.0021548201954 0.0021548201954 0.02284290022 0.0021548201954 0.076266763652 0.0021548201954 0.84520652041 0.0024087893885 
0.0024087893885 0.023096869414 0.0024087893885 0.12206145262 0.0024087893885 0.85346551713 0.002469095211 0.002469095211 0.023157175236 
0.002469095211 0.11350092679 0.002469095211 0.80231620808 0.002614873936 0.002614873936 0.023311695007 0.002614873936 0.16391260117 
0.002614873936 0.82842089725 0.0025648803266 0.0025648803266 0.023270442443 0.0025648803266 0.138049139 0.0025648803266 0.78917924138 
0.0024999172713 0.0024999172713 0.023214220434 0.0024999172713 0.1776068691 0.0024999172713 0.81348075916 0.0024504424788 0.0024504424788 
0.023163788988 0.0024504424788 0.15355368194 0.0024504424788 0.78020557488 0.0023205590896 0.0023205590896 0.023032948945 0.0023205590896 
0.18747923981 0.0023205590896 0.75599006912 0.0022048178415 0.0022048178415 0.022917207697 0.0022048178415 0.21227345182 0.0022048178415 
0.77888465659 0.0023609819586 0.0023609819586 0.023072415161 0.0023609819586 0.18859900041 0.0023609819586 0.46311972115 0.0032267534715 
0.0011613709123 0.017141938565 0.51266121552 0.0015276294712 0.0011613709123 0.33495976506 0.0013018556423 0.0011360421927 0.020887643935 
0.63492891995 0.0056497310267 0.0011360421927 0.56533839523 0.005250892023 0.0011428397121 0.014126567603 0.41158831226 0.0014101534646 
0.0011428397121 0.56288674694 0.0054287304971 0.0011503013366 0.017665967159 0.41029682627 0.0014211264615 0.0011503013366 0.68258168888 
0.0073105275609 0.0011268219677 0.017503062556 0.28918702051 0.0011640565633 0.0011268219677 0.76992510963 0.010563371636 0.0010562881378 
0.017725737204 0.19858730705 0.0010858982062 0.0010562881378 0.82355729421 0.013301204583 0.00098943905671 0.021501599662 0.1386454535 
0.001015569937 0.00098943905671 0.83592401236 0.013828753112 0.00097427105923 0.021503996794 0.1258022706 0.00099242501063 0.00097427105923 
0.81314634507 0.010865184794 0.0010225610317 0.021523378396 0.15138084813 0.0010391215418 0.0010225610317 0.84767335363 0.011429848289 
0.00099537693829 0.021707081138 0.11619681721 0.0010021458555 0.00099537693829 0.63509275509 0.0022774393549 0.00096007489271 0.31744349775 
0.042306083129 0.00096007489271 0.00096007489271 0.53029284719 0.0010544879164 0.00099005887797 0.42719160798 0.038490880273 0.00099005887797 
0.00099005887797 0.95825696448 0.0011857903186 0.0011857903186 0.021831110727 0.0011857903186 0.01516876352 0.0011857903186 0.94495879533 
0.0015515529458 0.0015515529458 0.022200894847 0.0015515529458 0.026634098044 0.0015515529458 0.95373094644 0.0013269723513 0.0013269723513 
0.021972292759 0.0013269723513 0.018988871394 0.0013269723513 0.95409932219 0.0012300557186 0.0012300557186 0.021875376127 0.0012300557186 
0.019105078806 0.0012300557186 0.93826601738 0.0017151925347 0.0017151925347 0.022368555928 0.0017151925347 0.032504656552 0.0017151925347 
0.92087833315 0.0019803265957 0.0019803265957 0.022637711482 0.0019803265957 0.048562648982 0.0019803265957 0.91790858716 0.0020644513277 
0.0020644513277 0.022721836214 0.0020644513277 0.051111771319 0.0020644513277 0.88590708175 0.0024588405565 0.0024588405565 0.023113345587 
0.0024588405565 0.081144210434 0.0024588405565 0.88481001763 0.0023855757508 0.0023855757508 0.023052249113 0.0023855757508 0.082595430251 
0.0023855757508 0.83409242021 0.0025683763722 0.0025683763722 0.023245281447 0.0025683763722 0.13238879286 0.0025683763722 0.83785390702 
0.0023151213709 0.0023151213709 0.023005138014 0.0023151213709 0.12988046949 0.0023151213709 0.75924617428 0.0024646293621 0.0024646293621 
0.023152709387 0.0024646293621 0.20774259888 0.0024646293621 0.76290718255 0.0024841259007 0.0024841259007 0.023172205926 0.0024841259007 
0.20398410792 0.0024841259007 0.68231084647 0.0027360561909 0.0027360561909 0.023424136216 0.0027360561909 0.28332079255 0.0027360561909 
0.71346087527 0.0028064984037 0.0028064984037 0.023503319475 0.0028064984037 0.25180981164 0.0028064984037 0.67922814185 0.0027723027998 
0.0027723027998 0.023477864917 0.0027723027998 0.28620478203 0.0027723027998 0.72884181879 0.0025157152769 0.0025157152769 0.02323001844 