# vtk DataFile Version 5.1
vtk output
ASCII
DATASET POLYDATA
POINTS 9718 float
-38.6111 66.8594 2.48812 -38.9157 67.0445 2.46166 -38.9698 66.8653 2.2262 
-38.5798 66.4626 2.3045 -39.1863 67.0838 2.27449 -39.449 67.1273 2.17759 
-39.3652 67.0079 2.0356 -39.2204 66.7987 1.98884 -39.0086 66.4849 2.04258 
-39.6269 67.086 1.99124 -39.876 66.9936 1.82512 -39.6578 66.9689 1.83886 
-39.5233 66.7686 1.79233 -39.2892 66.607 1.86963 -39.4917 66.3961 1.70885 
-39.9354 66.7462 1.5998 -39.7462 66.4981 1.57722 -39.1138 66.6614 4.08559 
-39.3805 66.6348 4.02039 -39.149 66.8513 3.78704 -38.637 66.9422 3.70351 
-38.7582 66.6896 4.09503 -38.0527 66.9869 3.62747 -38.154 66.7561 4.05342 
-37.4916 67.0065 3.49252 -37.4327 66.8057 3.9589 -37.013 66.9315 3.66378 
-39.5742 66.7547 3.76795 -39.9545 66.751 3.50968 -39.5286 66.9143 3.49078 
-39.1546 67.0197 3.36523 -38.6134 67.0701 3.27286 -38.0477 67.0628 3.22284 
-37.5447 67.0105 3.16621 -36.6478 66.9194 3.5992 -36.8931 66.9403 3.25728 
-36.215 66.8484 3.02197 -36.1587 66.8698 3.49521 -35.7255 66.873 3.19288 
-40.1487 66.8402 3.20525 -39.8162 66.9732 3.05041 -39.2067 67.093 2.92214 
-38.5873 67.0347 2.81363 -37.9447 66.9655 2.93762 -37.4343 66.8245 2.88952 
-36.8082 66.719 2.81136 -36.1604 66.5921 2.58403 -35.3572 66.8527 3.12847 
-35.5335 66.779 2.79095 -34.9458 66.7476 2.52548 -34.8865 66.8015 3.01771 
-34.4698 66.7997 2.67586 -41.3129 66.4433 2.7182 -41.5719 66.3526 2.46762 
-41.2117 66.59 2.52986 -40.8499 66.7671 2.52011 -41.0079 66.5652 2.84112 
-40.3331 66.9449 2.55243 -40.4796 66.7852 2.94806 -39.7927 67.0726 2.5441 
-39.2785 67.12 2.4877 -38.0885 66.6528 2.6151 -37.4351 66.382 2.56671 
-36.7827 66.3764 2.50771 -37.1474 66.0827 2.41603 -36.4258 66.3354 2.41458 
-36.1621 66.1675 2.25026 -35.4773 66.455 2.23115 -34.8987 66.6253 2.17715 
-34.042 66.7878 2.57066 -34.3762 66.7312 2.20138 -33.8272 66.7854 2.27767 
-41.6411 66.4347 2.15891 -41.3067 66.6318 2.15287 -40.7996 66.8501 2.12823 
-40.3094 66.9792 2.10845 -39.8204 67.0749 2.11202 -38.1483 65.8089 2.33063 
-38.7766 65.9149 2.11238 -37.5259 65.7904 2.36284 -35.9022 65.9119 1.97128 
-35.439 66.0019 1.75881 -34.8138 66.4012 1.7659 -34.2882 66.6304 1.81041 
-33.459 66.765 2.17952 -33.7802 66.7208 1.82661 -33.3202 66.7498 1.94209 
-41.6944 66.4486 1.94571 -41.9482 66.2866 1.62115 -41.5568 66.5582 1.77039 
-41.2124 66.7169 1.75442 -40.7869 66.8356 1.71196 -40.3273 66.8529 1.64337 
-39.2514 66.3376 1.85091 -39.1024 66.0949 1.93086 -35.1444 65.8743 1.39887 
-34.6341 66.1329 1.19172 -34.1972 66.4999 1.44171 -33.6384 66.6023 1.28464 
-33.144 66.6894 1.5956 -41.9709 66.2861 1.20505 -41.608 66.5239 1.43861 
-41.2422 66.6619 1.36383 -40.8702 66.7105 1.31564 -40.6367 66.6227 1.22513 
-40.3391 66.5114 1.28721 -40.0472 66.3166 1.35301 -39.7695 66.031 1.49268 
-39.4103 65.8818 1.7409 -34.5176 65.9561 0.774699 -34.0452 66.3193 0.873603 
-33.5769 66.5288 0.924207 -32.6971 66.6302 1.32883 -33.105 66.6026 0.96372 
-32.5617 66.5821 0.992952 -41.9765 66.2794 0.977535 -41.6819 66.4245 1.02405 
-41.2764 66.5351 1.01618 -40.9781 66.4869 0.972218 -40.7039 66.3171 0.96595 
-40.4258 65.9543 1.0157 -40.0826 65.8954 1.24818 -40.2387 65.4101 1.12254 
-34.3105 65.9479 0.462125 -33.8983 66.1732 0.302576 -33.529 66.439 0.580904 
-33.1208 66.5083 0.453975 -32.2352 66.4842 0.850519 -32.6322 66.522 0.515714 
-32.1569 66.4182 0.53939 -41.9906 66.2241 0.830941 -42.1547 66.0171 0.679039 
-41.8777 66.1808 0.662532 -41.5651 66.3572 0.77363 -41.3243 66.3158 0.722712 
-41.0666 66.1727 0.696083 -40.8282 65.9253 0.70902 -40.6868 65.6344 0.723671 
-40.5306 65.3006 0.847524 -33.7982 66.0723 -0.0963877 -33.394 66.324 0.0466074 
-32.9489 66.4635 0.145789 -32.6499 66.4484 0.0482356 -31.9167 66.2779 0.393767 
-32.2457 66.3624 0.111537 -31.9044 66.2177 0.159008 -42.1432 65.8945 0.5067 
-41.9445 65.9365 0.43228 -41.6566 66.1204 0.53396 -41.4215 65.9811 0.469828 
-41.173 65.7696 0.464448 -40.9611 65.458 0.503505 -40.7502 65.317 0.630824 
-40.9108 64.9932 0.515368 -33.6061 66.0774 -0.373614 -33.2953 66.2462 -0.371427 
-32.9287 66.3424 -0.296259 -32.5221 66.3586 -0.228395 -32.2324 66.2197 -0.374898 
-31.9068 66.1124 -0.127112 -41.8068 65.7269 0.289163 -41.5095 65.5687 0.260646 
-41.2885 65.2943 0.290386 -41.1311 65.0074 0.361573 -33.1408 66.2223 -0.593217 
-32.8996 66.1617 -0.796229 -32.5704 66.2379 -0.589419 -32.2622 66.0731 -0.796154 
-31.9316 65.9587 -0.585081 -32.8271 65.9636 -1.16344 -32.567 66.0647 -0.990401 
-32.3139 65.9459 -1.12927 -32.0033 65.7956 -1.07897 -32.5318 65.7974 -1.4179 
-32.2253 65.8083 -1.32144 -38.6946 65.5295 5.2089 -39.0228 65.4936 5.17535 
-38.731 65.919 4.87001 -38.0174 66.0269 4.83832 -38.2931 65.5472 5.21371 
-37.3207 66.0346 4.8155 -37.642 65.5543 5.20675 -36.6693 66.0503 4.7515 
-36.8824 65.4459 5.21592 -36.107 66.1634 4.58249 -36.1565 65.6163 4.99236 
-35.7509 65.9203 4.71544 -39.8933 65.6408 4.81631 -40.1885 65.5861 4.73651 
-39.8926 65.9818 4.48118 -39.2015 66.3063 4.40141 -39.4492 65.7042 4.88874 
-38.4306 66.392 4.46132 -37.7252 66.4578 4.42368 -37.0453 66.4697 4.38251 
-36.5006 66.4295 4.38941 -36.0947 66.4966 4.23642 -35.3544 65.7728 4.70992 
-35.5205 66.2484 4.3398 -34.9301 66.276 4.12609 -34.9081 65.8089 4.50264 
-34.5757 66.0156 4.23962 -40.3807 65.75 4.48241 -40.7261 65.6675 4.34666 
-40.4456 66.0594 4.09021 -39.851 66.4315 4.00774 -36.5872 66.743 3.96198 
-35.8337 66.6655 3.90352 -35.307 66.5451 3.93507 -34.9023 66.5441 3.7789 
-34.3009 65.9325 4.1921 -34.3839 66.2646 3.89447 -33.8045 66.156 3.75473 
-33.929 65.7072 4.1675 -33.3333 66.1344 3.57327 -33.389 65.7252 3.93047 
-33.0401 65.8459 3.69661 -40.9269 65.7896 4.06038 -41.2789 65.6585 3.90133 
-41.0037 66.0593 3.63063 -40.4082 66.4279 3.65035 -35.3426 66.7698 3.49365 
-34.621 66.6438 3.44361 -34.1213 66.4852 3.50242 -33.6967 66.4462 3.37036 
-33.2816 66.3689 3.27614 -32.7095 65.5823 3.7143 -32.8208 66.0498 3.36241 
-32.2399 65.8641 3.20015 -32.3939 65.5893 3.5274 -31.9153 65.3131 3.47407 
-42.0166 65.4232 3.41834 -42.2639 65.2676 3.31304 -42.0237 65.6476 3.06288 
-41.4373 66.1398 3.03185 -41.6383 65.6475 3.52959 -40.804 66.46 3.24123 
-40.3653 66.6834 3.31515 -34.1095 66.7023 3.03316 -33.5345 66.5826 3.05304 
-33.0955 66.4586 2.98667 -32.611 66.2738 2.94622 -32.1629 66.1129 2.85589 
-31.4961 65.2683 3.3224 -31.6324 65.6867 2.99759 -31.0022 65.5295 2.80153 
-31.0193 65.0827 3.24294 -30.6087 65.2145 2.95674 -42.4277 65.3058 3.03016 
-42.7033 65.117 2.87326 -42.4603 65.4897 2.63623 -41.9855 65.9432 2.58048 
-36.9061 66.0563 2.37205 -36.6366 66.0197 2.29873 -33.4813 66.7013 2.62113 
-32.9177 66.546 2.65212 -32.4718 66.4139 2.55386 -31.9414 66.1735 2.54794 
-31.4196 65.9254 2.51843 -30.938 65.7223 2.42319 -30.2786 65.0993 2.92323 
-30.3806 65.3439 2.58543 -29.7232 65.0704 2.54541 -29.8371 64.8697 2.94253 
-29.2664 64.9205 2.51668 -29.1973 64.7223 2.79373 -28.9027 64.7498 2.5584 
-42.8417 65.1303 2.5914 -43.09 64.9132 2.42812 -42.8382 65.2828 2.22846 
-42.4092 65.7316 2.17133 -41.9712 66.1668 2.08845 -38.7404 65.115 2.15398 
-39.082 65.1753 1.99011 -38.921 65.5001 2.04515 -38.3333 64.864 2.26161 
-37.7393 64.9715 2.25768 -37.0892 65.586 2.25206 -36.5167 65.4491 2.03192 
-35.7677 65.6921 1.73091 -36.0688 65.4027 1.75758 -32.9351 66.6537 2.18183 
-32.2927 66.4661 2.1715 -31.7629 66.2487 2.15673 -31.2632 66.0006 2.09882 
-30.7135 65.6656 2.07384 -30.0964 65.296 2.10455 -29.4663 65.0199 2.25841 
-29.6335 64.9852 1.94026 -29.0613 64.8577 2.37585 -43.1924 64.8954 2.14611 
-43.4252 64.6187 1.86047 -43.0922 65.0873 1.8916 -42.7758 65.458 1.80221 
-42.3695 65.8885 1.71726 -39.4232 65.0924 1.80345 -39.1183 65.6463 1.92961 
-35.6857 65.3289 1.43643 -34.9844 65.7934 1.12736 -35.2857 65.3627 1.04232 
-32.5503 66.6022 1.74365 -32.0725 66.4507 1.82453 -31.6508 66.2614 1.74002 
-31.1484 65.9602 1.67632 -30.6125 65.536 1.55093 -30.0467 65.1456 1.68778 
-30.2936 65.2303 1.43576 -43.458 64.6254 1.55843 -43.1627 65.0235 1.50092 
-42.7269 65.5433 1.38384 -42.3262 65.9651 1.29256 -39.7215 65.4056 1.5469 
-40.0513 64.9108 1.34377 -39.9638 65.5596 1.33921 -35.1072 65.2245 0.672303 
-34.8779 65.6868 0.872177 -32.1259 66.4665 1.33508 -31.5781 66.2133 1.35477 
-31.2035 65.9352 1.20528 -30.8966 65.5871 0.987186 -30.4476 65.1256 1.09563 
-43.47 64.5773 1.36031 -43.6081 64.1907 1.10973 -43.3159 64.7639 1.16899 
-43.0079 65.164 1.08966 -42.6235 65.599 0.978871 -42.2375 66.0157 0.919771 
-40.4032 64.7093 1.04886 -34.7416 65.5167 0.469184 -34.1935 65.9278 0.207428 
-34.4499 65.6102 0.107756 -31.7515 66.2379 0.851194 -31.3116 65.9012 0.762782 
-31.1136 65.5842 0.500862 -30.7661 65.2617 0.701362 -43.4894 64.1414 0.740123 
-43.2624 64.6928 0.879713 -42.8946 65.1345 0.72352 -42.4682 65.5908 0.586679 
-40.6117 64.8082 0.802343 -40.8322 64.5223 0.650484 -40.7165 65.017 0.669727 
-34.3094 65.5339 -0.249724 -34.1077 65.8689 -0.032726 -31.5759 65.9656 0.285501 
-31.2414 65.4764 0.0187199 -30.8768 65.1043 0.289439 -43.3538 64.1312 0.502705 
-43.1607 64.599 0.573889 -42.7881 64.9519 0.372875 -42.5044 65.3652 0.342724 
-42.2238 65.5762 0.299341 -41.1262 64.4866 0.418332 -33.9882 65.754 -0.412863 
-33.4048 66.0882 -0.648912 -33.7182 65.8196 -0.731946 -31.5935 65.7672 -0.281174 
-31.3069 65.3183 -0.488543 -30.9794 64.9332 -0.189156 -43.1173 64.3126 0.352484 
-42.8618 64.378 0.186202 -42.6478 64.833 0.153674 -42.5005 65.1954 0.203335 
-42.3169 65.2542 0.118639 -42.0811 65.3484 0.113876 -41.805 65.323 0.100786 
-41.5824 65.101 0.10267 -41.6132 64.7583 0.04498 -41.4075 64.6749 0.204354 
-33.6616 65.7292 -0.973083 -33.4308 65.9044 -0.954062 -33.1983 66.0972 -0.825541 
-31.6414 65.6044 -0.792136 -31.3573 65.175 -0.987294 -31.0581 64.7993 -0.688462 
-42.4703 64.9857 0.0825995 -42.2938 64.9755 0.0284172 -42.0475 65.0037 0.000189054 
-41.8238 64.9663 -0.00726863 -41.701 64.8652 -0.00762589 -33.5764 65.6692 -1.14006 
-33.3362 65.7557 -1.22895 -33.1185 65.9574 -1.08355 -31.6872 65.4374 -1.28754 
-31.3799 65.0384 -1.46245 -31.1061 64.6923 -1.18302 -33.0329 65.6916 -1.45388 
-32.4106 65.6121 -1.71634 -32.721 65.5039 -1.8334 -32.0817 65.5674 -1.59963 
[...]
CELL_DATA 19432
FIELD FieldData 1
plab 7 19432 double
0.96517175526 0.0058047074572 0.0058047074572 0.0058047074572 0.0058047074572 0.0058047074572 0.0058047074572 0.96210182838 0.0063163619367 
0.0063163619367 0.0063163619367 0.0063163619367 0.0063163619367 0.0063163619367 0.97030266422 0.0049495559629 0.0049495559629 0.0049495559629 
0.0049495559629 0.0049495559629 0.0049495559629 0.96622624558 0.0056289590703 0.0056289590703 0.0056289590703 0.0056289590703 0.0056289590703 
0.0056289590703 0.9610841524 0.0064859746003 0.0064859746003 0.0064859746003 0.0064859746003 0.0064859746003 0.0064859746003 0.96505829257 
0.0058236179042 0.0058236179042 0.0058236179042 0.0058236179042 0.0058236179042 0.0058236179042 0.96802397571 0.0053293373816 0.0053293373816 
0.0053293373816 0.0053293373816 0.0053293373816 0.0053293373816 0.9748222385 0.0041962935841 0.0041962935841 0.0041962935841 0.0041962935841 
0.0041962935841 0.0041962935841 0.98507128043 0.0024881199276 0.0024881199276 0.0024881199276 0.0024881199276 0.0024881199276 0.0024881199276 
0.96983608418 0.0050273193035 0.0050273193035 0.0050273193035 0.0050273193035 0.0050273193035 0.0050273193035 0.9778768028 0.003687199534 
0.003687199534 0.003687199534 0.003687199534 0.003687199534 0.003687199534 0.97718231437 0.0038029476044 0.0038029476044 0.0038029476044 
0.0038029476044 0.0038029476044 0.0038029476044 0.96826903519 0.0052884941355 0.0052884941355 0.0052884941355 0.0052884941355 0.0052884941355 
0.0052884941355 0.97601151759 0.0039980804015 0.0039980804015 0.0039980804015 0.0039980804015 0.0039980804015 0.0039980804015 0.97363888088 
0.0043935198527 0.0043935198527 0.0043935198527 0.0043935198527 0.0043935198527 0.0043935198527 0.98079163053 0.0032013949121 0.0032013949121 
0.0032013949121 0.0032013949121 0.0032013949121 0.0032013949121 0.98518808244 0.0024686529263 0.0024686529263 0.0024686529263 0.0024686529263 
0.0024686529263 0.0024686529263 0.97624175524 0.0039597074608 0.0039597074608 0.0039597074608 0.0039597074608 0.0039597074608 0.0039597074608 
0.9796117374 0.003398043766 0.003398043766 0.003398043766 0.003398043766 0.003398043766 0.003398043766 0.97033069868 0.0049448835527 
0.0049448835527 0.0049448835527 0.0049448835527 0.0049448835527 0.0049448835527 0.99441899859 0.00093016690242 0.00093016690242 0.00093016690242 
0.00093016690242 0.00093016690242 0.00093016690242 0.99450555209 0.00091574131878 0.00091574131878 0.00091574131878 0.00091574131878 0.00091574131878 
0.00091574131878 0.99490645143 0.00084892476243 0.00084892476243 0.00084892476243 0.00084892476243 0.00084892476243 0.00084892476243 0.99537379153 
0.00077103474527 0.00077103474527 0.00077103474527 0.00077103474527 0.00077103474527 0.00077103474527 0.99570657115 0.00071557147469 0.00071557147469 
0.00071557147469 0.00071557147469 0.00071557147469 0.00071557147469 0.99514930268 0.00080844955375 0.00080844955375 0.00080844955375 0.00080844955375 
0.00080844955375 0.00080844955375 0.99448659349 0.00091890108576 0.00091890108576 0.00091890108576 0.00091890108576 0.00091890108576 0.00091890108576 
0.99374747238 0.001042087936 0.001042087936 0.001042087936 0.001042087936 0.001042087936 0.001042087936 0.99148291378 0.0014195143697 
0.0014195143697 0.0014195143697 0.0014195143697 0.0014195143697 0.0014195143697 0.99293155299 0.0011780745013 0.0011780745013 0.0011780745013 
0.0011780745013 0.0011780745013 0.0011780745013 0.99245150972 0.0012580817139 0.0012580817139 0.0012580817139 0.0012580817139 0.0012580817139 
0.0012580817139 0.99353355085 0.001077741525 0.001077741525 0.001077741525 0.001077741525 0.001077741525 0.001077741525 0.99443734102 
0.00092710983068 0.00092710983068 0.00092710983068 0.00092710983068 0.00092710983068 0.00092710983068 0.99281241942 0.00094362957945 0.00094362957945 
0.00094362957945 0.00094362957945 0.0024694326836 0.00094362957945 0.99389028709 0.00080212051364 0.00080212051364 0.00080212051364 0.00080212051364 
0.0020991103455 0.00080212051364 0.99085144946 0.00080112213259 0.00080112213259 0.00080112213259 0.00080112213259 0.0051429398765 0.00080112213259 
0.99393388231 0.00081390421107 0.00081390421107 0.00081390421107 0.00081390421107 0.001996596633 0.00081390421107 0.99090232618 0.00083212365902 
0.00083212365902 0.00083212365902 0.00083212365902 0.0049370555291 0.00083212365902 0.98949929286 0.0008725944875 0.0008725944875 0.0008725944875 
0.0008725944875 0.0061377347049 0.0008725944875 0.99234128338 0.00096844578488 0.00096844578488 0.00096844578488 0.00096844578488 0.0028164876936 
0.00096844578488 0.99102179857 0.00096163172886 0.00096163172886 0.00096163172886 0.00096163172886 0.0041700427855 0.00096163172886 0.98311216442 
0.0012219320378 0.0012219320378 0.0012219320378 0.0012219320378 0.010778175391 0.0012219320378 0.93964131742 0.0021652115271 0.0021652115271 
0.0021652115271 0.0021652115271 0.049532624943 0.0021652115271 0.95177359574 0.0029882572545 0.0029882572545 0.0029882572545 0.0029882572545 
0.033285117987 0.0029882572545 0.98991590461 0.0016806825646 0.0016806825646 0.0016806825646 0.0016806825646 0.0016806825646 0.0016806825646 
0.990395669 0.0016007218333 0.0016007218333 0.0016007218333 0.0016007218333 0.0016007218333 0.0016007218333 0.99044775175 0.0015920413743 
0.0015920413743 0.0015920413743 0.0015920413743 0.0015920413743 0.0015920413743 0.98750322545 0.0017163724163 0.0017163724163 0.0017163724163 
0.0017163724163 0.0039149124732 0.0017163724163 0.98585615916 0.0012894301018 0.0012894301018 0.0012894301018 0.0012894301018 0.0076966903267 
0.0012894301018 0.98237684508 0.0015808009886 0.0015808009886 0.0015808009886 0.0015808009886 0.0097191499768 0.0015808009886 0.98657880823 
0.0011557661279 0.0011557661279 0.0011557661279 0.0011557661279 0.0076423611299 0.0011557661279 0.98718067468 0.0014139303115 0.0014139303115 
0.0014139303115 0.0014139303115 0.0057496737578 0.0014139303115 0.98546606148 0.00099900176525 0.00099900176525 0.00099900176525 0.00099900176525 
0.0095389296987 0.00099900176525 0.98255305452 0.0014655502053 0.0014655502053 0.0014655502053 0.0014655502053 0.010119194455 0.0014655502053 
0.98030947962 0.0011266268022 0.0011266268022 0.0011266268022 0.0011266268022 0.014057386365 0.0011266268022 0.97684672657 0.001419057548 
0.001419057548 0.001419057548 0.001419057548 0.016057985692 0.001419057548 0.9425401602 0.0019366867096 0.0019366867096 0.0019366867096 
0.0019366867096 0.04777640625 0.0019366867096 0.84974949887 0.0042899066779 0.0042899066779 0.0042899066779 0.0042899066779 0.12880096774 
0.0042899066779 0.6725238392 0.0061764329331 0.0061764329331 0.0061764329331 0.0061764329331 0.29659399613 0.0061764329331 0.89022798645 
0.0045339839161 0.0045339839161 0.0045339839161 0.0045339839161 0.087102093974 0.0045339839161 0.96235343695 0.0033767334538 0.0033767334538 
0.0033767334538 0.0033767334538 0.020762895778 0.0033767334538 0.95888714701 0.0034830905442 0.0034830905442 0.0034830905442 0.0034830905442 
0.023697400266 0.0034830905442 0.89171859028 0.004771499575 0.004771499575 0.004771499575 0.004771499575 0.084423911844 0.004771499575 
0.96341745361 0.0028856695405 0.0028856695405 0.0028856695405 0.0028856695405 0.022154198687 0.0028856695405 0.993228783 0.0011285361667 
0.0011285361667 0.0011285361667 0.0011285361667 0.0011285361667 0.0011285361667 0.99356964189 0.0010717263519 0.0010717263519 0.0010717263519 
0.0010717263519 0.0010717263519 0.0010717263519 0.9939428089 0.0010095318504 0.0010095318504 0.0010095318504 0.0010095318504 0.0010095318504 
0.0010095318504 0.99401865317 0.00099689113915 0.00099689113915 0.00099689113915 0.00099689113915 0.00099689113915 0.00099689113915 0.99364604711 
0.0010589921486 0.0010589921486 0.0010589921486 0.0010589921486 0.0010589921486 0.0010589921486 0.99026725521 0.0014767026274 0.0014767026274 
0.0014767026274 0.0014767026274 0.0023492316544 0.0014767026274 0.9911656169 0.0014723971832 0.0014723971832 0.0014723971832 0.0014723971832 
0.0014723971832 0.0014723971832 0.99055485006 0.001574191656 0.001574191656 0.001574191656 0.001574191656 0.001574191656 0.001574191656 
0.98460514274 0.001784158926 0.001784158926 0.001784158926 0.001784158926 0.0064740626279 0.001784158926 0.98296265229 0.0019745123637 
0.0019745123637 0.0019745123637 0.0019745123637 0.0071647858923 0.0019745123637 0.98287662402 0.0023299037746 0.0023299037746 0.0023299037746 
0.0023299037746 0.0054738571114 0.0023299037746 0.97999168821 0.0033181179426 0.0033181179426 0.0033181179426 0.0033181179426 0.0034177220776 
0.0033181179426 0.9765267298 0.003892736171 0.003892736171 0.003892736171 0.003892736171 0.0040095893467 0.003892736171 0.98424588001 
0.0023663112247 0.0023663112247 0.0023663112247 0.0023663112247 0.0039225638638 0.0023663112247 0.97984911084 0.0033417625426 0.0033417625426 
0.0033417625426 0.0033417625426 0.0034420764474 0.0033417625426 0.97043377403 0.0049277043288 0.0049277043288 0.0049277043288 0.0049277043288 
0.0049277043288 0.0049277043288 0.98104963445 0.002412571072 0.002412571072 0.002412571072 0.002412571072 0.0068875101853 0.002412571072 
0.95613254238 0.0049015263908 0.0049015263908 0.0049015263908 0.0049015263908 0.019359825663 0.0049015263908 0.94903481175 0.0037299898447 
0.0037299898447 0.0037299898447 0.0037299898447 0.032315239029 0.0037299898447 0.92847688003 0.0040204700403 0.0040204700403 0.0040204700403 
0.0040204700403 0.051420769764 0.0040204700403 0.84842788999 0.0081384944097 0.0081384944097 0.0081384944097 0.0081384944097 0.11087963796 
0.0081384944097 0.72015406821 0.0065808591645 0.0065808591645 0.0065808591645 0.0065808591645 0.24694163597 0.0065808591645 0.90941142647 
0.0035761184675 0.0035761184675 0.0035761184675 0.0035761184675 0.072707981192 0.0035761184675 0.57357670751 0.0076355239918 0.0076355239918 
0.0076355239918 0.0076355239918 0.38824567253 0.0076355239918 0.456899302 0.0082114526452 0.0082114526452 0.0082114526452 0.0082114526452 
0.50204343477 0.0082114526452 0.46167696792 0.0082256335391 0.0082256335391 0.0082256335391 0.0082256335391 0.49719486439 0.0082256335391 
0.64168311553 0.0069927778171 0.0069927778171 0.0069927778171 0.0069927778171 0.32335299539 0.0069927778171 0.67172765337 0.0073260977945 
0.0073260977945 0.0073260977945 0.0073260977945 0.29164185765 0.0073260977945 0.80306180835 0.0054593062189 0.0054593062189 0.0054593062189 
0.0054593062189 0.16964166055 0.0054593062189 0.92716036141 0.0035253144365 0.0035253144365 0.0035253144365 0.0035253144365 0.055213066409 
0.0035253144365 0.97293693324 0.0021909592322 0.0021909592322 0.0021909592322 0.0021909592322 0.016108270603 0.0021909592322 0.97361559939 
0.0017529320768 0.0017529320768 0.0017529320768 0.0017529320768 0.017619740229 0.0017529320768 0.98881311792 0.0018644803472 0.0018644803472 
0.0018644803472 0.0018644803472 0.0018644803472 0.0018644803472 0.98957030468 0.0017382825526 0.0017382825526 0.0017382825526 0.0017382825526 
0.0017382825526 0.0017382825526 0.98938298799 0.0017695020018 0.0017695020018 0.0017695020018 0.0017695020018 0.0017695020018 0.0017695020018 
0.99059993015 0.0015666783082 0.0015666783082 0.0015666783082 0.0015666783082 0.0015666783082 0.0015666783082 0.99430580153 0.00094903307813 
0.00094903307813 0.00094903307813 0.00094903307813 0.00094903307813 0.00094903307813 0.99398729729 0.0010016590686 0.0010016590686 0.0010016590686 
0.0010016590686 0.0010044073711 0.0010016590686 0.9926055243 0.0011211857608 0.0011211857608 0.0011211857608 0.0011211857608 0.0017885468954 
0.0011211857608 0.99032991587 0.0012685457392 0.0012685457392 0.0012685457392 0.0012685457392 0.0033273554342 0.0012685457392 0.98592410889 
0.0018482506417 0.0018482506417 0.0018482506417 0.0018482506417 0.0048346378994 0.0018482506417 0.98351416108 0.0024812154645 0.0024812154645 
0.0024812154645 0.0024812154645 0.0040797615968 0.0024812154645 0.97760643636 0.0037322606065 0.0037322606065 0.0037322606065 0.0037322606065 
0.0037322606065 0.0037322606065 0.9733337194 0.0044443800998 0.0044443800998 0.0044443800998 0.0044443800998 0.0044443800998 0.0044443800998 
0.90305968593 0.0083101035109 0.0083101035109 0.0083101035109 0.0083101035109 0.055389796516 0.0083101035109 0.60116084494 0.010510092399 
0.010510092399 0.010510092399 0.010510092399 0.34628869307 0.010510092399 0.92554887881 0.0074876402626 0.0074876402626 0.0074876402626 
0.0074876402626 0.037012919879 0.0074876402626 0.6224206532 0.012161431019 0.012161431019 0.012161431019 0.012161431019 0.31677219171 
0.012161431019 0.85340258094 0.0091586134299 0.0091586134299 0.0091586134299 0.0091586134299 0.10080435191 0.0091586134299 0.76157521297 
0.013772202634 0.013772202634 0.013772202634 0.013772202634 0.16956377386 0.013772202634 0.36202885441 0.0080811202985 0.0080811202985 
0.0080811202985 0.0080811202985 0.59756554409 0.0080811202985 0.55202056373 0.0079535789173 0.0079535789173 0.0079535789173 0.0079535789173 
0.40821154168 0.0079535789173 0.40088670802 0.0075626536791 0.0075626536791 0.0075626536791 0.0075626536791 0.56130002358 0.0075626536791 
0.36139220958 0.0078298010551 0.0078298010551 0.0078298010551 0.0078298010551 0.59945878515 0.0078298010551 0.71189545495 0.0063934100156 
0.0063934100156 0.0063934100156 0.0063934100156 0.25613749497 0.0063934100156 0.72446725462 0.0063890342677 0.0063890342677 0.0063890342677 
0.0063890342677 0.24358757404 0.0063890342677 0.93755836921 0.0044013825386 0.0044013825386 0.0044013825386 0.0044013825386 0.040434718095 
0.0044013825386 0.97569534012 0.0020858719755 0.0020858719755 0.0020858719755 0.0020858719755 0.013875300001 0.0020858719755 0.99186424927 
0.0011489320506 0.0011489320506 0.0011489320506 0.0011489320506 0.0023910904744 0.0011489320506 0.99328302334 0.0011194961106 0.0011194961106 
0.0011194961106 0.0011194961106 0.0011194961106 0.0011194961106 0.99061035327 0.0015649411219 0.0015649411219 0.0015649411219 0.0015649411219 
0.0015649411219 0.0015649411219 0.97326658821 0.0044555686313 0.0044555686313 0.0044555686313 0.0044555686313 0.0044555686313 0.0044555686313 
0.98463971161 0.0025600480654 0.0025600480654 0.0025600480654 0.0025600480654 0.0025600480654 0.0025600480654 0.98902656771 0.0018289053809 
0.0018289053809 0.0018289053809 0.0018289053809 0.0018289053809 0.0018289053809 0.98179376506 0.0030343724893 0.0030343724893 0.0030343724893 
0.0030343724893 0.0030343724893 0.0030343724893 0.98965353961 0.0017244100652 0.0017244100652 0.0017244100652 0.0017244100652 0.0017244100652 
0.0017244100652 0.99438085091 0.00093609677825 0.00093609677825 0.00093609677825 0.00093609677825 0.00093866519419 0.00093609677825 0.99444978554 
0.00092225802542 0.00092225802542 0.00092225802542 0.00092225802542 0.00093892433706 0.00092225802542 0.99254238781 0.0011174171901 0.0011174171901 
0.0011174171901 0.0011174171901 0.0018705262425 0.0011174171901 0.99026052722 0.0014603237956 0.0014603237956 0.0014603237956 0.0014603237956 
0.0024378538025 0.0014603237956 0.98664482936 0.0020100315241 0.0020100315241 0.0020100315241 0.0020100315241 0.0033050130219 0.0020100315241 
0.98511772594 0.0022398695463 0.0022398695463 0.0022398695463 0.0022398695463 0.0036829263268 0.0022398695463 0.89163841229 0.0078274288017 
0.0078274288017 0.0078274288017 0.0078274288017 0.069224443705 0.0078274288017 0.45752175832 0.008074447119 0.008074447119 0.008074447119 
0.008074447119 0.50210600608 0.008074447119 0.37241161129 0.0071717273756 0.0071717273756 0.0071717273756 0.0071717273756 0.59172975183 
0.0071717273756 0.90349772994 0.0069707787049 0.0069707787049 0.0069707787049 0.0069707787049 0.061648376532 0.0069707787049 0.35704190154 
0.0073993316111 0.0073993316111 0.0073993316111 0.0073993316111 0.6059614404 0.0073993316111 0.69604218057 0.0078231472239 0.0078231472239 
0.0078231472239 0.0078231472239 0.26484208331 0.0078231472239 0.53427677572 0.0086084758004 0.0086084758004 0.0086084758004 0.0086084758004 
0.42268084528 0.0086084758004 0.35050330494 0.0078097022379 0.0078097022379 0.0078097022379 0.0078097022379 0.61044818387 0.0078097022379 
0.92702388995 0.005546400354 0.005546400354 0.005546400354 0.005546400354 0.045244108284 0.005546400354 0.93191509972 0.0051442964573 
0.0051442964573 0.0051442964573 0.0051442964573 0.042363417995 0.0051442964573 0.99250144327 0.0011723278909 0.0011723278909 0.0011723278909 
0.0011723278909 0.0016369172717 0.0011723278909 0.97822239739 0.0024059955409 0.0024059955409 0.0024059955409 0.0024059955409 0.0097476249058 
0.0024059955409 0.98438641715 0.0026022638079 0.0026022638079 0.0026022638079 0.0026022638079 0.0026022638079 0.0026022638079 0.98876482466 
0.0018725292231 0.0018725292231 0.0018725292231 0.0018725292231 0.0018725292231 0.0018725292231 0.97186913452 0.0046884775797 0.0046884775797 
0.0046884775797 0.0046884775797 0.0046884775797 0.0046884775797 0.96187034773 0.0063549420443 0.0063549420443 0.0063549420443 0.0063549420443 
0.0063549420443 0.0063549420443 0.97923230425 0.0034612826243 0.0034612826243 0.0034612826243 0.0034612826243 0.0034612826243 0.0034612826243 
0.98803710845 0.0019938152587 0.0019938152587 0.0019938152587 0.0019938152587 0.0019938152587 0.0019938152587 0.99413965499 0.00097424220362 
0.00097424220362 0.00097424220362 0.00097424220362 0.00098913399534 0.00097424220362 0.99406810963 0.00098613612931 0.00098613612931 0.00098613612931 
0.00098613612931 0.0010012097258 0.00098613612931 0.99293755062 0.0011740838185 0.0011740838185 0.0011740838185 0.0011740838185 0.0011920302918 
0.0011740838185 0.99032495175 0.0016084104782 0.0016084104782 0.0016084104782 0.0016084104782 0.0016329958573 0.0016084104782 0.98994198145 
0.0016720766675 0.0016720766675 0.0016720766675 0.0016720766675 0.0016976352169 0.0016720766675 0.97090429079 0.0037822330261 0.0037822330261 
0.0037822330261 0.0037822330261 0.010184544081 0.0037822330261 0.97771833194 0.0028964566632 0.0028964566632 0.0028964566632 0.0028964566632 
0.0077993847446 0.0028964566632 0.34513960283 0.0074416470248 0.0074416470248 0.0074416470248 0.0074416470248 0.61765216204 0.0074416470248 
0.94841994741 0.0053862214688 0.0053862214688 0.0053862214688 0.0053862214688 0.024648945246 0.0053862214688 0.90562191945 0.005448217265 
0.005448217265 0.005448217265 0.005448217265 0.067136994228 0.005448217265 0.62805487466 0.0077571696768 0.0077571696768 0.0077571696768 
0.0077571696768 0.33315927696 0.0077571696768 0.026031635133 0.0012497279225 0.0012497279225 0.0012497279225 0.0012497279225 0.96771972525 
0.0012497279225 0.5751811149 0.0092497064542 0.0092497064542 0.0092497064542 0.0092497064542 0.37857035283 0.0092497064542 0.46234333103 
0.0089939104038 0.0089939104038 0.0089939104038 0.0089939104038 0.49268711695 0.0089939104038 0.74261515675 0.0076860324033 0.0076860324033 
0.0076860324033 0.0076860324033 0.21895468123 0.0076860324033 0.75396344286 0.0076993097758 0.0076993097758 0.0076993097758 0.0076993097758 
0.20754000826 0.0076993097758 0.92146740025 0.0061390751735 0.0061390751735 0.0061390751735 0.0061390751735 0.047837223877 0.0061390751735 
0.97348972684 0.0029288622879 0.0029288622879 0.0029288622879 0.0029288622879 0.011865961718 0.0029288622879 0.99027299363 0.0015207247573 
0.0015207247573 0.0015207247573 0.0015207247573 0.0021233825792 0.0015207247573 0.9910226036 0.001496232733 0.001496232733 0.001496232733 
0.001496232733 0.001496232733 0.001496232733 0.97701896928 0.0038301717864 0.0038301717864 0.0038301717864 0.0038301717864 0.0038301717864 
0.0038301717864 0.98122134768 0.003129775387 0.003129775387 0.003129775387 0.003129775387 0.003129775387 0.003129775387 0.95696860326 
0.007171899457 0.007171899457 0.007171899457 0.007171899457 0.007171899457 0.007171899457 0.94873999666 0.0085433338902 0.0085433338902 
0.0085433338902 0.0085433338902 0.0085433338902 0.0085433338902 0.97352726505 0.004412122492 0.004412122492 0.004412122492 0.004412122492 
0.004412122492 0.004412122492 0.97503237738 0.004161270436 0.004161270436 0.004161270436 0.004161270436 0.004161270436 0.004161270436 