# vtk DataFile Version 5.1
vtk output
ASCII
DATASET POLYDATA
POINTS 7078 float
-32.9085 64.1004 0.759604 -33.1792 64.037 0.561121 -32.8495 64.1624 0.523764 
-32.6186 64.1956 0.372806 -32.5816 64.097 0.788888 -32.3331 64.123 0.510287 
-33.2477 64.0674 0.231505 -32.9455 64.1731 0.155709 -32.6516 64.2203 0.120389 
-32.0876 64.0292 0.401669 -32.3562 64.1475 0.119449 -32.0479 64.0085 0.184089 
-33.2585 64.0661 -0.0157576 -33.0431 64.1246 -0.33626 -32.6833 64.1947 -0.155741 
-32.3798 64.118 -0.324274 -32.0551 63.9708 -0.095038 -32.9845 64.1216 -0.646876 
-32.7036 64.1513 -0.599883 -32.3857 64.0746 -0.67698 -32.1059 63.9298 -0.539974 
-32.9248 64.0898 -0.85556 -32.7307 64.0897 -0.955816 -32.5223 64.0799 -0.886672 
-32.2447 63.8947 -1.01528 -32.5694 63.9916 -1.15389 -31.8184 63.541 -2.19421 
-32.0161 63.6051 -2.33888 -31.8087 63.5485 -2.39225 -31.6898 63.4358 -2.30132 
-32.0079 63.5589 -2.57121 -31.8761 63.5462 -2.52655 -31.5385 63.1717 -2.30386 
-31.7103 63.3933 -2.52616 -31.56 63.0991 -2.61275 -31.906 63.4038 -2.71775 
-31.7121 63.2735 -2.71449 -32.9373 62.8871 3.41388 -33.2376 63.0439 3.26785 
-32.9535 63.2561 3.00477 -32.4895 63.4016 2.80371 -32.4657 63.0357 3.22662 
-32.1448 63.2668 2.95322 -33.3563 63.2092 3.04577 -33.6194 63.1903 2.96155 
-33.3726 63.392 2.69092 -32.8983 63.5401 2.55665 -32.4828 63.617 2.4399 
-31.8624 63.2495 2.91607 -31.9743 63.4717 2.57826 -31.3924 63.3974 2.4497 
-31.4566 63.1254 2.91227 -30.9588 63.3308 2.29967 -30.8635 63.0807 2.69778 
-30.675 63.1734 2.43357 -34.139 63.0659 2.61598 -34.365 62.9218 2.3791 
-34.0235 63.2173 2.42669 -33.692 63.4216 2.34072 -33.8577 63.1937 2.71875 
-33.2573 63.6126 2.22345 -32.7909 63.7362 2.11789 -32.291 63.7387 2.10318 
-31.7834 63.6523 2.09583 -31.3033 63.5302 2.00936 -30.9254 63.3905 1.97664 
-30.5651 63.186 2.17121 -34.4246 62.9776 1.8566 -34.0364 63.2796 2.07569 
-33.6241 63.5643 1.88678 -33.1498 63.778 1.72643 -32.6347 63.8763 1.66535 
-32.1169 63.8451 1.69098 -31.6303 63.7175 1.65864 -31.1064 63.457 1.55717 
-30.6982 63.2603 1.82384 -30.5801 63.0764 1.52491 -25.5492 63.2521 2.05786 
-25.8407 63.1036 1.88253 -25.4316 63.2993 1.87489 -25.0775 63.4286 1.78102 
-25.1669 63.3618 2.15752 -24.709 63.5503 1.98557 -18.2085 63.1057 2.58099 
-18.4304 63.3373 2.52331 -18.4037 63.2215 2.26467 -18.1513 62.983 2.45703 
-34.4297 63.0432 1.33924 -34.0232 63.3655 1.59912 -33.5632 63.6837 1.3719 
-33.0104 63.9416 1.13963 -32.3979 63.9716 1.24115 -31.9516 63.8823 1.32878 
-31.582 63.7317 1.21799 -31.2324 63.4707 1.04876 -30.8577 63.174 1.20048 
-26.0283 62.9123 1.58659 -25.5067 63.1644 1.53731 -25.0506 63.3816 1.52477 
-24.4046 63.6597 1.90104 -24.588 63.5661 1.61386 -24.0208 63.7223 1.48148 
-23.9954 63.7404 1.90351 -23.5631 63.8524 1.70407 -18.6494 63.4957 2.28296 
-18.913 63.6616 2.1785 -18.8324 63.4946 1.93373 -18.4999 63.0345 1.9112 
-18.1416 62.7532 2.28701 -34.4123 63.1045 0.823582 -34.0084 63.4421 1.08476 
-33.564 63.7728 0.824099 -32.0259 63.9444 0.836554 -31.5878 63.7187 0.818578 
-31.3533 63.502 0.67844 -30.9585 63.0626 0.741401 -25.9576 62.7998 1.33961 
-25.6051 62.8876 1.18438 -25.0073 63.2181 1.20156 -24.4393 63.5055 1.25088 
-24.0442 63.6086 1.14879 -23.143 63.9354 1.67281 -23.4621 63.8113 1.27777 
-22.854 63.9688 1.45551 -19.1535 63.7491 1.92994 -19.4678 63.8697 1.82721 
-19.3681 63.6952 1.56087 -18.9478 63.3104 1.53794 -18.6159 62.8167 1.54711 
-18.1803 62.3372 1.95552 -34.4056 63.1279 0.321233 -34.0089 63.4936 0.553587 
-33.5885 63.8406 0.22139 -31.7096 63.7353 0.315357 -31.2998 63.3652 0.441377 
-31.3957 63.4001 0.224332 -25.4172 62.7757 0.9383 -25.0308 62.8853 0.807902 
-24.4291 63.2449 0.851395 -23.8426 63.5499 0.924644 -23.424 63.6572 0.881338 
-22.5476 64.0126 1.33955 -22.8246 63.8646 1.03136 -22.2131 63.9 0.866042 
-22.1387 64.0372 1.29771 -21.7634 64.0352 1.0884 -20.8201 64.1146 1.42682 
-21.0834 64.1206 1.37872 -20.9506 64.0385 1.11754 -20.4113 63.938 1.11987 
-20.4836 64.0583 1.47605 -19.8845 63.751 1.14438 -19.9193 63.9366 1.54888 
-19.4186 63.447 1.15413 -19.0301 63.0467 1.17859 -18.7514 62.6643 1.23186 
-18.4426 62.2138 1.47394 -34.4034 63.1135 -0.161383 -34.0507 63.4802 0.0504545 
-33.7766 63.715 -0.219577 -33.4421 63.9381 -0.303679 -31.7764 63.6877 -0.286393 
-31.4553 63.3654 -0.0678644 -24.7958 62.76 0.563302 -24.3825 62.8782 0.453861 
-23.7874 63.2579 0.545473 -23.1897 63.5805 0.661648 -22.7028 63.6541 0.595012 
-22.191 63.694 0.513306 -21.3724 64.0714 1.14005 -21.5798 63.8762 0.739833 
-20.9119 63.852 0.749536 -20.3722 63.7218 0.759028 -19.8889 63.4717 0.774471 
-19.458 63.0841 0.799601 -19.049 62.6056 0.895855 -18.7063 62.36 1.13369 
-18.8022 62.0494 0.954554 -34.3827 63.0834 -0.616012 -34.066 63.4368 -0.435778 
-33.7012 63.7198 -0.626586 -33.258 63.963 -0.778796 -31.8535 63.6376 -0.802959 
-31.5218 63.304 -0.543019 -24.0878 62.7438 0.222138 -23.6201 62.8657 0.140919 
-23.1723 63.2784 0.329457 -22.5883 63.3564 0.231319 -21.8996 63.4792 0.217612 
-21.315 63.667 0.418243 -20.8323 63.5978 0.413831 -20.349 63.4256 0.431871 
-19.9226 63.0937 0.441076 -19.5148 62.5503 0.46515 -19.0953 62.0685 0.685041 
-19.3368 61.8836 0.430136 -34.4209 62.9663 -0.994198 -34.0161 63.3788 -0.971521 
-33.6043 63.7175 -0.988214 -33.3421 63.8183 -1.18745 -32.932 63.9365 -1.23521 
-31.9463 63.5908 -1.32724 -31.5685 63.2372 -1.04785 -23.0719 62.7828 -0.0770413 
-22.4077 63.0674 -0.073144 -22.0438 63.2032 -0.0718649 -21.7821 63.2225 -0.0748512 
-21.3002 63.316 0.0604907 -20.7544 63.3162 0.164883 -20.399 63.052 0.131011 
-20.0286 62.69 0.137615 -19.7896 62.3561 0.142657 -19.5838 62.1082 0.241973 
-34.2345 63.1153 -1.22067 -34.0281 63.1953 -1.51269 -33.6587 63.5645 -1.3459 
-33.2739 63.7229 -1.54177 -32.9107 63.7874 -1.66892 -32.445 63.7921 -1.57028 
-31.9796 63.5712 -1.87013 -31.3892 62.8985 -1.2655 -31.6046 63.209 -1.57579 
-31.3218 62.7056 -1.51847 -21.6328 63.0038 -0.218305 -21.3187 62.8779 -0.244926 
-20.8925 62.9569 -0.100012 -20.5092 62.5696 -0.158161 -20.0906 62.1956 -0.0805441 
-20.3922 62.1485 -0.274668 -19.7898 61.9685 0.0616985 -33.9186 63.0974 -1.98697 
-33.5988 63.4364 -1.78438 -33.1854 63.6035 -1.94264 -32.7578 63.6904 -2.01508 
-32.3542 63.6561 -2.14548 -31.6543 63.3243 -2.02581 -31.3913 62.851 -1.93432 
-21.1014 62.3962 -0.410979 -20.6795 62.1747 -0.378419 -33.8501 63.0372 -2.26734 
-33.4874 63.2816 -2.27784 -33.0422 63.5235 -2.27198 -32.6886 63.5458 -2.43025 
-32.2741 63.5009 -2.62858 -31.4395 62.7706 -2.74452 -31.3535 62.7551 -2.37343 
-31.2718 62.4818 -2.58852 -33.7893 62.9632 -2.47516 -33.489 62.9836 -2.7612 
-33.0809 63.324 -2.60825 -32.6919 63.3536 -2.80485 -32.4054 63.3061 -2.96069 
-32.0975 63.2512 -2.95895 -31.7347 63.0358 -2.92687 -31.5088 62.6229 -3.0248 
-31.3142 62.3984 -2.83827 -33.3608 62.7488 -3.15317 -33.046 63.083 -2.98458 
-32.6723 63.119 -3.12627 -32.3359 63.0844 -3.19251 -32.0223 62.9314 -3.21334 
-31.7454 62.6716 -3.22952 -31.5519 62.3875 -3.22895 -31.3793 62.2295 -3.07457 
-33.2871 62.5954 -3.36239 -32.9657 62.7706 -3.3385 -32.582 62.8954 -3.34445 
-32.3106 62.7616 -3.41101 -32.0138 62.5495 -3.43781 -31.7344 62.2528 -3.41979 
-31.4934 61.9892 -3.28444 -31.6328 61.9477 -3.43463 -33.2188 62.4426 -3.48801 
-32.9678 62.3904 -3.57357 -32.6487 62.5549 -3.52569 -32.3412 62.3443 -3.59811 
-32.0206 62.1228 -3.60642 -31.7936 61.8324 -3.54604 -31.9493 61.8685 -3.65412 
-32.7674 61.9984 -3.72265 -32.3309 61.9048 -3.72174 -32.0864 61.8199 -3.7024 
-34.1417 62.0559 3.95773 -34.3365 61.9949 3.91347 -34.1375 62.3153 3.7008 
-33.7439 62.5569 3.62287 -33.8473 62.0844 3.99249 -33.3394 62.7315 3.54589 
-33.4698 62.3623 3.83137 -33.0382 62.4097 3.79018 -17.5245 61.7626 4.47016 
-17.7521 62.0385 4.40886 -17.6376 62.1659 4.13205 -17.3905 61.7965 4.28544 
-34.4526 62.1093 3.71358 -34.6716 62.0098 3.58756 -34.4233 62.3866 3.37031 
-34.0232 62.6962 3.32939 -33.6077 62.9472 3.27528 -32.6319 62.6305 3.59333 
-31.9103 62.9898 3.19503 -32.1847 62.6015 3.54895 -31.5821 62.9139 3.20663 
-31.6237 62.587 3.47117 -31.3466 62.8313 3.21815 -18.6607 62.7733 4.12331 
-18.8628 62.8564 4.07165 -18.695 63.0011 3.85188 -18.3092 62.8583 3.80864 
-18.419 62.6549 4.14523 -17.9319 62.6161 3.78804 -18.0172 62.4221 4.17761 
-17.6039 62.2913 3.75833 -17.3774 61.9039 4.0345 -34.7662 62.097 3.3096 
-35.0255 61.9202 2.98771 -34.6472 62.3653 3.04501 -34.2744 62.7836 2.90409 
-33.8869 62.9951 3.04608 -30.9099 62.7521 3.12593 -30.3406 62.9706 2.53232 
-30.3008 62.6758 2.95082 -30.037 62.7682 2.70572 -19.0229 63.0707 3.85811 
-19.3059 63.186 3.73683 -19.0735 63.3045 3.53096 -18.6675 63.2156 3.45749 
-18.2656 63.021 3.40141 -17.8939 62.7105 3.40597 -17.5941 62.3083 3.42701 
-17.3318 61.8031 3.73887 -35.092 62.03 2.43857 -34.7086 62.453 2.64894 
-30.1136 62.9464 2.20655 -29.8563 62.7805 2.48692 -26.5211 62.7299 2.67106 
-26.7992 62.7096 2.5194 -26.3909 62.8666 2.36302 -25.7346 63.1015 2.31229 
-25.9994 62.8634 2.6802 -25.2969 63.2179 2.43085 -25.2857 63.0103 2.76093 
-24.9631 63.2805 2.49757 -19.4708 63.3848 3.48038 -19.8354 63.562 3.20516 
-19.4185 63.5369 3.21991 -19.0964 63.5138 3.11367 -18.6754 63.3806 3.02337 
-18.2326 63.0947 2.93131 -17.8387 62.6572 3.116 -17.6264 62.2613 3.11075 
-17.4246 61.886 3.40252 -35.1286 62.1023 1.93396 -34.7694 62.5349 2.14434 
-30.3315 63.0311 1.87892 -29.9697 62.8288 1.94017 -29.6425 62.7023 2.1662 
-26.8602 62.7239 2.28849 -27.2246 62.5701 2.12497 -26.7186 62.7302 2.01479 
-26.2081 62.9567 2.07058 -24.3051 63.6315 2.13258 -24.6118 63.4556 2.34054 
-24.0214 63.6784 2.18574 -24.0333 63.518 2.47253 -23.7337 63.6939 2.25169 
-19.975 63.7502 2.9011 -19.6703 63.7522 2.79389 -19.1755 63.6826 2.67159 
-18.7472 63.5317 2.56053 -17.9338 62.6657 2.72873 -17.6549 62.0954 2.8539 
-17.4497 61.6946 3.15929 -35.1688 62.1104 1.52761 -34.8263 62.5678 1.60158 
-30.0883 62.7224 1.58736 -30.4441 62.6775 1.11139 -29.6881 62.6059 1.83621 
-27.1812 62.4572 1.83387 -26.81 62.5115 1.67223 -26.3527 62.8141 1.76975 
-23.2715 63.9046 1.86121 -23.3541 63.8011 2.1113 -23.0027 63.9014 1.98726 
-20.1236 63.8501 2.68768 -20.4568 63.9058 2.55918 -20.2457 63.9632 2.30909 
[...]
CELL_DATA 14152
FIELD FieldData 1
plab 7 14152 double
0.74405265507 0.0013881956848 0.0013881956848 0.0013881956848 0.0013881956848 0.24900636651 0.0013881956848 0.95411724068 0.0014127760764 
0.0014127760764 0.0014127760764 0.0014127760764 0.038818878933 0.0014127760764 0.98663050075 0.0012974087076 0.0012974087076 0.0012974087076 
0.0012974087076 0.0068824557098 0.0012974087076 0.99273722152 0.0012104630808 0.0012104630808 0.0012104630808 0.0012104630808 0.0012104630808 
0.0012104630808 0.76041343978 0.0011872488683 0.0011872488683 0.0011872488683 0.0011872488683 0.23365031588 0.0011872488683 0.69846145989 
0.0011658495314 0.0011658495314 0.0011658495314 0.0011658495314 0.29570929246 0.0011658495314 0.95833420237 0.0011854948464 0.0011854948464 
0.0011854948464 0.0011854948464 0.035738323398 0.0011854948464 0.98924911385 0.0010063666383 0.0010063666383 0.0010063666383 0.0010063666383 
0.005719052962 0.0010063666383 0.99391089981 0.0010112507266 0.0010112507266 0.0010112507266 0.0010112507266 0.0010328465607 0.0010112507266 
0.99313970415 0.0011393274767 0.0011393274767 0.0011393274767 0.0011393274767 0.0011636584627 0.0011393274767 0.99336688179 0.0010987868584 
0.0010987868584 0.0010987868584 0.0010987868584 0.001139183921 0.0010987868584 0.98989445901 0.0011669287055 0.0011669287055 0.0011669287055 
0.0011669287055 0.0042708974628 0.0011669287055 0.77508193315 0.0009797336074 0.0009797336074 0.0009797336074 0.0009797336074 0.22001939882 
0.0009797336074 0.99037965662 0.00085951965483 0.00085951965483 0.00085951965483 0.00085951965483 0.0053227451082 0.00085951965483 0.98245972579 
0.00087602485376 0.00087602485376 0.00087602485376 0.00087602485376 0.013160149937 0.00087602485376 0.92200190311 0.00092108528153 0.00092108528153 
0.00092108528153 0.00092108528153 0.073392670487 0.00092108528153 0.99472199357 0.00086340916386 0.00086340916386 0.00086340916386 0.00086340916386 
0.00096096061364 0.00086340916386 0.99506071506 0.00080387925052 0.00080387925052 0.00080387925052 0.00080387925052 0.00091988868565 0.00080387925052 
0.98585000859 0.0011197636708 0.0011197636708 0.0011197636708 0.0011197636708 0.0085511730584 0.0011197636708 0.99368464835 0.00087420227134 
0.00087420227134 0.00087420227134 0.00087420227134 0.0019443402907 0.00087420227134 0.9849574019 0.00078279738137 0.00078279738137 0.00078279738137 
0.00078279738137 0.011128611196 0.00078279738137 0.94342673017 0.00074707625274 0.00074707625274 0.00074707625274 0.00074707625274 0.052837888565 
0.00074707625274 0.99212465805 0.00071429382277 0.00071429382277 0.00071429382277 0.00071429382277 0.0043038728371 0.00071429382277 0.99198602113 
0.00074642924275 0.00074642924275 0.00074642924275 0.00074642924275 0.0042818326525 0.00074642924275 0.99241778537 0.00089792450852 0.00089792450852 
0.00089792450852 0.00089792450852 0.0030925920889 0.00089792450852 0.99422681771 0.00086333897954 0.00086333897954 0.00086333897954 0.00086333897954 
0.0014564873889 0.00086333897954 0.89529239084 0.00064825379144 0.00064825379144 0.00064825379144 0.00064825379144 0.1014663402 0.00064825379144 
0.99029911984 0.00088607289297 0.00088607289297 0.00088607289297 0.00088607289297 0.0052705157 0.00088607289297 0.98802094175 0.00096198548974 
0.00096198548974 0.00096198548974 0.00096198548974 0.0071691308038 0.00096198548974 0.96604497846 0.00079840718566 0.00079840718566 0.00079840718566 
0.00079840718566 0.029962985613 0.00079840718566 0.99202650144 0.0010900351675 0.0010900351675 0.0010900351675 0.0010900351675 0.002523322724 
0.0010900351675 0.99272276839 0.0011092694094 0.0011092694094 0.0011092694094 0.0011092694094 0.0017308845649 0.0011092694094 0.99286669563 
0.00109998866 0.00109998866 0.00109998866 0.00109998866 0.001633361067 0.00109998866 0.99214336666 0.0011883008362 0.0011883008362 
0.0011883008362 0.0011883008362 0.0019151291608 0.0011883008362 0.95505242198 0.0013081141611 0.0013081141611 0.0013081141611 0.0013081141611 
0.038407007217 0.0013081141611 0.9327519821 0.001383642604 0.001383642604 0.001383642604 0.001383642604 0.060329804879 0.001383642604 
0.98254106299 0.001264224911 0.001264224911 0.001264224911 0.001264224911 0.011137812457 0.001264224911 0.99045043076 0.0012330246683 
0.0012330246683 0.0012330246683 0.0012330246683 0.0033844458945 0.0012330246683 0.97588196632 0.001385787605 0.001385787605 0.001385787605 
0.001385787605 0.017189095652 0.001385787605 0.92732670568 0.0013079916202 0.0013079916202 0.0013079916202 0.0013079916202 0.066133336216 
0.0013079916202 0.9090959896 0.0013508135262 0.0013508135262 0.0013508135262 0.0013508135262 0.08414994277 0.0013508135262 0.90982041128 
0.0013806628006 0.0013806628006 0.0013806628006 0.0013806628006 0.083276274715 0.0013806628006 0.99199114932 0.0013348084461 0.0013348084461 
0.0013348084461 0.0013348084461 0.0013348084461 0.0013348084461 0.97127733029 0.0014303826333 0.0014303826333 0.0014303826333 0.0014303826333 
0.021570756539 0.0014303826333 0.98722917342 0.0014406659686 0.0014406659686 0.0014406659686 0.0014406659686 0.0055674967359 0.0014406659686 
0.91138554003 0.0013734870821 0.0013734870821 0.0013734870821 0.0013734870821 0.081747024557 0.0013734870821 0.99501516135 0.00083080644218 
0.00083080644218 0.00083080644218 0.00083080644218 0.00083080644218 0.00083080644218 0.99464987386 0.00089168769071 0.00089168769071 0.00089168769071 
0.00089168769071 0.00089168769071 0.00089168769071 0.99435972988 0.00094004502 0.00094004502 0.00094004502 0.00094004502 0.00094004502 
0.00094004502 0.9937003849 0.0010499358497 0.0010499358497 0.0010499358497 0.0010499358497 0.0010499358497 0.0010499358497 0.98636819689 
0.0018060517417 0.0018060517417 0.0018060517417 0.0018060517417 0.004601544399 0.0018060517417 0.99326619583 0.0011155066636 0.0011155066636 
0.0011155066636 0.0011155066636 0.0011562708516 0.0011155066636 0.9918483794 0.0013457396793 0.0013457396793 0.0013457396793 0.0013457396793 
0.0014229221991 0.0013457396793 0.99377107707 0.0010346916787 0.0010346916787 0.0010346916787 0.0010346916787 0.0010554645342 0.0010346916787 
0.99463907553 0.00089348741214 0.00089348741214 0.00089348741214 0.00089348741214 0.00089348741214 0.00089348741214 0.99423952017 0.00096007997246 
0.00096007997246 0.00096007997246 0.00096007997246 0.00096007997246 0.00096007997246 0.99365164428 0.0010580592867 0.0010580592867 0.0010580592867 
0.0010580592867 0.0010580592867 0.0010580592867 0.99340126751 0.0010997887482 0.0010997887482 0.0010997887482 0.0010997887482 0.0010997887482 
0.0010997887482 0.99307923197 0.0011534613385 0.0011534613385 0.0011534613385 0.0011534613385 0.0011534613385 0.0011534613385 0.99319623392 
0.0011306375048 0.0011306375048 0.0011306375048 0.0011306375048 0.0011505785516 0.0011306375048 0.99377527288 0.0010321059579 0.0010321059579 
0.0010321059579 0.0010321059579 0.0010641973296 0.0010321059579 0.99206283404 0.00089036507603 0.00089036507603 0.00089036507603 0.00089036507603 
0.0034853405797 0.00089036507603 0.98427908592 0.00079964538664 0.00079964538664 0.00079964538664 0.00079964538664 0.01172268715 0.00079964538664 
0.95360514692 0.00075776355976 0.00075776355976 0.00075776355976 0.00075776355976 0.042606035286 0.00075776355976 0.22659640396 0.00093208363239 
0.00093208363239 0.00093208363239 0.00093208363239 0.76874317787 0.00093208363239 0.47655565151 0.0013431192786 0.0013431192786 0.0013431192786 
0.0013431192786 0.5167287521 0.0013431192786 0.64160341073 0.0013869914032 0.0013869914032 0.0013869914032 0.0013869914032 0.35146163225 
0.0013869914032 0.98312064097 0.0016582425122 0.0016582425122 0.0016582425122 0.0016582425122 0.0085881464663 0.0016582425122 0.94782411555 
0.0016021062029 0.0016021062029 0.0016021062029 0.0016021062029 0.044165353436 0.0016021062029 0.96615240058 0.0018501277555 0.0018501277555 
0.0018501277555 0.0018501277555 0.024596960638 0.0018501277555 0.99114967774 0.0014661242299 0.0014661242299 0.0014661242299 0.0014661242299 
0.0015197011073 0.0014661242299 0.99165100683 0.0013914988618 0.0013914988618 0.0013914988618 0.0013914988618 0.0013914988618 0.0013914988618 
0.99317551372 0.0011374143794 0.0011374143794 0.0011374143794 0.0011374143794 0.0011374143794 0.0011374143794 0.99040650897 0.0015989151715 
0.0015989151715 0.0015989151715 0.0015989151715 0.0015989151715 0.0015989151715 0.99126188303 0.0014563528282 0.0014563528282 0.0014563528282 
0.0014563528282 0.0014563528282 0.0014563528282 0.98944037569 0.0017594354329 0.0017594354329 0.0017594354329 0.0017594354329 0.0017624471406 
0.0017594354329 0.99263477961 0.0012244842398 0.0012244842398 0.0012244842398 0.0012244842398 0.0012427991861 0.0012244842398 0.98786643516 
0.0011528387784 0.0011528387784 0.0011528387784 0.0011528387784 0.006369370946 0.0011528387784 0.97738155687 0.00086927485075 0.00086927485075 
0.00086927485075 0.00086927485075 0.018272068871 0.00086927485075 0.87588601567 0.0010117007971 0.0010117007971 0.0010117007971 0.0010117007971 
0.11905548034 0.0010117007971 0.909523988 0.0010011554151 0.0010011554151 0.0010011554151 0.0010011554151 0.085470234928 0.0010011554151 
0.84073238798 0.001228769535 0.001228769535 0.001228769535 0.001228769535 0.15312376434 0.001228769535 0.15689659565 0.00074123602379 
0.00074123602379 0.00074123602379 0.00074123602379 0.83939722423 0.00074123602379 0.037866499808 0.00067806644267 0.00067806644267 0.00067806644267 
0.00067806644267 0.95874316798 0.00067806644267 0.40598222338 0.0011859997538 0.0011859997538 0.0011859997538 0.0011859997538 0.58808777785 
0.0011859997538 0.58129299103 0.001333310475 0.001333310475 0.001333310475 0.001333310475 0.4120404566 0.001333310475 0.94453555302 
0.0015997863256 0.0015997863256 0.0015997863256 0.0015997863256 0.047465515348 0.0015997863256 0.95474171828 0.001299384388 0.001299384388 
0.001299384388 0.001299384388 0.038761359776 0.001299384388 0.98727664402 0.0012693485689 0.0012693485689 0.0012693485689 0.0012693485689 
0.0063766131337 0.0012693485689 0.9886527536 0.0011320606772 0.0011320606772 0.0011320606772 0.0011320606772 0.0056869430188 0.0011320606772 
0.98954046964 0.0017432550606 0.0017432550606 0.0017432550606 0.0017432550606 0.0017432550606 0.0017432550606 0.98693789626 0.0021766723611 
0.0021766723611 0.0021766723611 0.0021766723611 0.0021787419377 0.0021766723611 0.98552873004 0.0024108078592 0.0024108078592 0.0024108078592 
0.0024108078592 0.0024172306674 0.0024108078592 0.98022220318 0.0025968588952 0.0025968588952 0.0025968588952 0.0025968588952 0.0067935023489 
0.0025968588952 0.9661561622 0.0017602260127 0.0017602260127 0.0017602260127 0.0017602260127 0.025042707732 0.0017602260127 0.84001079044 
0.0017829951222 0.0017829951222 0.0017829951222 0.0017829951222 0.15107423395 0.0017829951222 0.7495679273 0.001323540726 0.001323540726 
0.001323540726 0.001323540726 0.24381436907 0.001323540726 0.63358922214 0.0015817384683 0.0015817384683 0.0015817384683 0.0015817384683 
0.35850208552 0.0015817384683 0.51474935775 0.0016526116678 0.0016526116678 0.0016526116678 0.0016526116678 0.47698758392 0.0016526116678 
0.66281452936 0.0015052993367 0.0015052993367 0.0015052993367 0.0015052993367 0.32965897395 0.0015052993367 0.022822163808 0.00073470883471 
0.00073470883471 0.00073470883471 0.97350429202 0.00073470883471 0.00073470883471 0.10879444958 0.0011845626943 0.0011845626943 0.0011845626943 
0.88528273695 0.0011845626943 0.0011845626943 0.3288031279 0.0014596589622 0.0014596589622 0.0014596589622 0.66389857729 0.0014596589622 
0.0014596589622 0.70940252795 0.0010926398009 0.0010926398009 0.0010926398009 0.28513427305 0.0010926398009 0.0010926398009 0.84253306161 
0.0010296194314 0.0010296194314 0.15231884123 0.0010296194314 0.0010296194314 0.0010296194314 0.81149646249 0.001086780697 0.001086780697 
0.18306963403 0.001086780697 0.001086780697 0.001086780697 0.023856663046 0.00061120472091 0.00061120472091 0.00061120472091 0.00061120472091 
0.97308731335 0.00061120472091 0.0041495746796 0.0006405354832 0.0006405354832 0.0006405354832 0.0006405354832 0.9926477479 0.0006405354832 
0.19069166432 0.001012029669 0.001012029669 0.001012029669 0.001012029669 0.80424818734 0.001012029669 0.27416985784 0.0013967171126 
0.0013967171126 0.0013967171126 0.0013967171126 0.7188465566 0.0013967171126 0.73268071386 0.0012962424817 0.0012962424817 0.0012962424817 
0.0012962424817 0.26083807373 0.0012962424817 0.76314123012 0.0013126694678 0.0013126694678 0.0013126694678 0.0013126694678 0.23029542254 
0.0013126694678 0.96474655852 0.00113691529 0.00113691529 0.00113691529 0.00113691529 0.029568865026 0.00113691529 0.98787788024 
0.0011911021902 0.0011911021902 0.0011911021902 0.0011911021902 0.0061666088133 0.0011911021902 0.99127536912 0.0014538747571 0.0014538747571 
0.0014538747571 0.0014538747571 0.0014552570989 0.0014538747571 0.99227290641 0.0012876448829 0.0012876448829 0.0012876448829 0.0012876448829 
0.0012888691736 0.0012876448829 0.98416893048 0.0020798675889 0.0020798675889 0.0020798675889 0.0020798675889 0.0054317315707 0.0020798675889 
0.96042195008 0.0021486133691 0.0021486133691 0.0021486133691 0.0021486133691 0.028834983076 0.0021486133691 0.78251411759 0.0025567637513 
0.0025567637513 0.0025567637513 0.0025567637513 0.20470206366 0.0025567637513 0.5897809159 0.00206623446 0.00206623446 0.00206623446 
0.00206623446 0.3998879118 0.00206623446 0.49021456482 0.0017710685097 0.0017710685097 0.0017710685097 0.0017710685097 0.50093009263 
0.0017710685097 0.52292683838 0.0018935277688 0.0018935277688 0.0018935277688 0.0018935277688 0.46760552278 0.0018935277688 0.007069336408 
0.00067267098211 0.00067267098211 0.00067267098211 0.98956730868 0.00067267098211 0.00067267098211 0.0020072711202 0.00059039931874 0.00059039931874 
0.00059039931874 0.99504073229 0.00059039931874 0.00059039931874 0.034926761688 0.0011379076862 0.0011379076862 0.0011379076862 0.95938369988 
0.0011379076862 0.0011379076862 0.087962585326 0.0015212959811 0.0015212959811 0.0015212959811 0.90443093477 0.0015212959811 0.0015212959811 
0.5546468697 0.001363709392 0.001363709392 0.001363709392 0.43853458334 0.001363709392 0.001363709392 0.70003287211 0.0011249300117 
0.0011249300117 0.0011249300117 0.29434247783 0.0011249300117 0.0011249300117 0.74800467902 0.001088683369 0.001088683369 0.001088683369 
0.24655190413 0.001088683369 0.001088683369 0.84074075023 0.00095599127466 0.00095599127466 0.00095599127466 0.1544792934 0.00095599127466 
0.00095599127466 0.88626909089 0.00082640292667 0.00082640292667 0.00082640292667 0.10959889448 0.00082640292667 0.00082640292667 0.9400981668 
0.00062954865251 0.00062954865251 0.00062954865251 0.056754089939 0.00062954865251 0.00062954865251 0.92088292608 0.00095689304426 0.00095689304426 
0.074332608694 0.00095689304426 0.00095689304426 0.00095689304426 0.84357271914 0.00088964979827 0.00088964979827 0.15197903187 0.00088964979827 
0.00088964979827 0.00088964979827 0.8731823098 0.0010190165307 0.0010190165307 0.12172260754 0.0010190165307 0.0010190165307 0.0010190165307 
0.84913379261 0.001012537784 0.001012537784 0.14580351847 0.001012537784 0.001012537784 0.001012537784 0.73341854793 0.0010466590677 
0.0010466590677 0.26134815673 0.0010466590677 0.0010466590677 0.0010466590677 0.73169988581 0.00084094174759 0.00084094174759 0.26409540545 
0.00084094174759 0.00084094174759 0.00084094174759 0.0027721266994 0.00071095330656 0.00071095330656 0.00071095330656 0.00071095330656 0.99367310677 
0.00071095330656 0.00077183340074 0.00077183340074 0.00077183340074 0.00077183340074 0.00077183340074 0.9953689996 0.00077183340074 0.025509948091 
0.0010423229838 0.0010423229838 0.0010423229838 0.0010423229838 0.96927843699 0.0010423229838 0.053032283738 0.0014641147018 0.0014641147018 
0.0014641147018 0.0014641147018 0.93964714275 0.0014641147018 0.48706116562 0.0016300212236 0.0016300212236 0.0016300212236 0.0016300212236 
0.50478872826 0.0016300212236 0.53724364506 0.0015187406903 0.0015187406903 0.0015187406903 0.0015187406903 0.45516265148 0.0015187406903 
0.73927783804 0.0014479621408 0.0014479621408 0.0014479621408 0.0014479621408 0.25348235126 0.0014479621408 0.95287402933 0.0014811850512 
0.0014811850512 0.0014811850512 0.0014811850512 0.039720045417 0.0014811850512 0.9881353617 0.0011658024292 0.0011658024292 0.0011658024292 
0.0011658024292 0.0060356261569 0.0011658024292 0.99437062759 0.00086936707547 0.00086936707547 0.00086936707547 0.00086936707547 0.0012825370347 
0.00086936707547 0.99377797829 0.00096089233847 0.00096089233847 0.00096089233847 0.00096089233847 0.0014175600217 0.00096089233847 0.99269727963 
0.0011277890659 0.0011277890659 0.0011277890659 0.0011277890659 0.001663775044 0.0011277890659 0.98149635645 0.0014699206361 0.0014699206361 
0.0014699206361 0.0014699206361 0.011154040372 0.0014699206361 0.93022457219 0.0018712983814 0.0018712983814 0.0018712983814 0.0018712983814 
0.060418935899 0.0018712983814 0.68452745915 0.0022056054929 0.0022056054929 0.0022056054929 0.0022056054929 0.30444451338 0.0022056054929 
0.64116175758 0.0019809267851 0.0019809267851 0.0019809267851 0.0019809267851 0.3489336085 0.0019809267851 0.4829925416 0.0018608083156 
0.0018608083156 0.0018608083156 0.0018608083156 0.50770341683 0.0018608083156 0.50171376997 0.0017932444053 0.0017932444053 0.0017932444053 
0.0017932444053 0.48932000801 0.0017932444053 0.00062789134579 0.00053649726408 0.00053649726408 0.00053649726408 0.99668962233 0.00053649726408 
0.00053649726408 0.021326737086 0.0010064299212 0.0010064299212 0.0010064299212 0.97364111331 0.0010064299212 0.0010064299212 0.0030578875454 
0.00071888104814 0.00071888104814 0.00071888104814 0.99334770721 0.00071888104814 0.00071888104814 0.00083436069148 0.00060990840468 0.00060990840468 
0.00060990840468 0.99611609729 0.00060990840468 0.00060990840468 0.22006231141 0.0014763665549 0.0014763665549 0.0014763665549 0.77255585581 
0.0014763665549 0.0014763665549 0.21505822068 0.0014568971961 0.0014568971961 0.0014568971961 0.77765729334 0.0014568971961 0.0014568971961 
0.69497925154 0.0012815227248 0.0012815227248 0.0012815227248 0.29861313484 0.0012815227248 0.0012815227248 0.70739671991 0.0012716287058 
0.0012716287058 0.0012716287058 0.28624513657 0.0012716287058 0.0012716287058 0.87153240029 0.00089232604737 0.00089232604737 0.00089232604737 
0.12400596948 0.00089232604737 0.00089232604737 0.92804967283 0.00069999999574 0.00069999999574 0.00069999999574 0.068450327195 0.00069999999574 
0.00069999999574 0.94606886398 0.00076187595236 0.00076187595236 0.00076187595236 0.050121756256 0.00076187595236 0.00076187595236 0.9676899338 
0.0008243818067 0.0008243818067 0.0008243818067 0.028188157167 0.0008243818067 0.0008243818067 0.97846087094 0.00075214029333 0.00073162597306 
0.01786048487 0.00073162597306 0.00073162597306 0.00073162597306 0.90839719957 0.00084329438625 0.00084213510587 0.08739096562 0.00084213510587 
0.00084213510587 0.00084213510587 0.96007275131 0.00086883175987 0.00085840076951 0.035624813848 0.00085840076951 0.00085840076951 0.00085840076951 
0.96007104344 0.00085274342837 0.00084366538077 0.035701551605 0.00084366538077 0.00084366538077 0.00084366538077 0.83144430305 0.00074249782267 
0.00074249782267 0.16484320783 0.00074249782267 0.00074249782267 0.00074249782267 0.70213347569 0.00059741698863 0.00059741698863 0.29487943936 
0.00059741698863 0.00059741698863 0.00059741698863 0.58382452291 0.0007086101869 0.0007086101869 0.41263242616 0.0007086101869 0.0007086101869 
0.0007086101869 0.57057530428 0.00060547718984 0.00060547718984 0.42639730977 0.00060547718984 0.00060547718984 0.00060547718984 0.00066575916316 
0.00066575916316 0.00066575916316 0.00066575916316 0.00066575916316 0.99600544502 0.00066575916316 0.00059505683787 0.00059505683787 0.00059505683787 
0.00059505683787 0.00059505683787 0.99642965897 0.00059505683787 0.0051078718463 0.00088513617912 0.00088513617912 0.00088513617912 0.00088513617912 
0.99046644726 0.00088513617912 0.032617443075 0.00098812830795 0.00098812830795 0.00098812830795 0.00098812830795 0.96244191539 0.00098812830795 