# vtk DataFile Version 5.1
vtk output
ASCII
DATASET POLYDATA
POINTS 7118 float
35.9112 62.4627 2.26989 35.6893 62.4744 2.27146 35.8214 62.6601 2.0132 
36.1777 62.6713 1.85619 36.2029 62.4079 2.19629 36.4071 62.4903 1.98214 
34.6638 62.5052 1.88781 34.492 62.4833 1.64954 34.8066 62.6467 1.76722 
35.1133 62.7471 1.76909 34.9087 62.5263 2.00275 35.5001 62.8245 1.7427 
35.3585 62.5854 2.07938 35.8766 62.852 1.64835 36.2225 62.7859 1.50585 
36.5026 62.5357 1.73065 34.5323 62.5781 1.25238 34.8451 62.7323 1.50175 
35.2127 62.88 1.46197 35.5788 62.953 1.41237 35.9164 62.9428 1.29435 
36.236 62.8424 1.13171 36.5526 62.5989 1.32062 34.5748 62.613 1.01512 
34.9208 62.7968 1.11367 35.3174 62.9495 1.19196 35.6082 62.9856 1.07463 
35.9264 62.96 0.942896 36.1934 62.8741 0.824712 36.5176 62.6407 0.838634 
34.6511 62.6191 0.824003 34.9385 62.7449 0.731179 35.2676 62.8994 0.873171 
35.6082 62.9262 0.705944 35.965 62.9029 0.587014 36.2667 62.7948 0.584063 
36.1301 62.7879 0.352008 35.2076 62.7386 0.428065 35.6761 62.8167 0.332696 
35.9382 62.8314 0.314327 36.385 61.3131 3.16555 36.1108 61.3431 3.17561 
36.2821 61.6705 2.8748 36.7197 61.6869 2.69321 36.7307 61.2372 3.07828 
37.0255 61.3777 2.78005 35.3192 61.5841 2.962 35.0308 61.5896 2.89767 
35.3041 61.9368 2.67272 35.884 62.1218 2.54717 35.7118 61.5883 2.97524 
36.4177 62.0409 2.48572 36.7387 61.9328 2.42537 37.2892 61.2319 2.6477 
37.0632 61.6584 2.38577 37.3717 61.2955 2.43687 33.7498 61.7121 2.31756 
33.5214 61.6649 2.2078 33.8627 61.9223 2.05266 34.4562 62.1934 2.09576 
34.088 61.7573 2.41886 35.014 62.2537 2.31847 34.6674 61.8134 2.59428 
35.4519 62.3081 2.39158 36.6903 62.1731 2.0913 37.1335 61.8377 1.88026 
37.4252 61.3591 2.13458 33.4329 61.7371 1.9406 33.1111 61.5916 1.60335 
33.6243 61.9088 1.69948 34.0498 62.166 1.68707 36.8473 62.2576 1.59236 
37.2016 61.9111 1.36321 37.4884 61.4509 1.63382 33.2341 61.6508 1.18044 
33.6889 61.9649 1.24401 34.182 62.3246 1.33408 36.883 62.3076 1.09407 
37.2162 61.9381 0.841227 37.526 61.4924 1.08679 33.4246 61.7455 0.976808 
33.6234 61.7661 0.63344 34.2112 62.2913 0.855128 36.8618 62.3076 0.579864 
37.17 61.9752 0.394861 37.5309 61.485 0.475422 33.7237 61.6749 0.179857 
34.1185 62.0294 0.254929 34.6397 62.4631 0.42835 36.4564 62.5636 0.294317 
36.8749 62.195 0.00960129 37.2829 61.7885 0.0424692 37.121 61.9434 -0.207582 
33.8996 61.7033 -0.0872369 34.2184 61.8311 -0.331032 34.5211 62.2109 -0.0334516 
34.9427 62.4653 -0.00277523 35.4243 62.6303 -0.00817053 35.9608 62.6427 -0.0180168 
36.4138 62.4288 -0.225782 36.7043 62.2411 -0.409998 36.9728 61.9801 -0.512101 
34.3831 61.7517 -0.728583 34.7322 62.1283 -0.50113 35.1674 62.4196 -0.345624 
35.5727 62.4768 -0.438665 36.022 62.4267 -0.583758 36.4629 62.2655 -0.700098 
36.1846 62.2958 -0.920462 36.739 62.136 -0.667432 34.6119 61.8669 -0.881383 
34.8797 61.9806 -0.973175 35.1972 62.2384 -0.751902 35.6099 62.2899 -0.912468 
35.9361 62.3121 -0.974409 35.7804 62.2133 -1.18154 35.2465 61.9592 -1.28166 
35.5772 62.148 -1.22459 19.4036 60.1124 5.19585 19.2892 60.1039 5.00124 
19.4857 60.33 5.13082 19.7269 60.4987 5.1556 19.5857 60.1352 5.29634 
20.0845 60.6526 5.18247 19.9258 60.2198 5.39044 20.5068 60.7828 5.18206 
20.3585 60.3013 5.44902 20.9364 60.9309 5.10215 20.8836 60.3821 5.45703 
21.2502 60.6894 5.27119 19.3 60.3067 4.66064 19.5216 60.508 4.91511 
19.8374 60.7808 4.89685 20.2105 60.9872 4.89606 20.6047 61.1431 4.86905 
20.9724 61.2329 4.80672 21.5871 60.6401 5.25449 21.4407 61.0579 4.9046 
21.8777 60.7457 5.07089 19.3705 60.4144 4.28706 19.6084 60.6935 4.57724 
19.9627 61.0003 4.56491 20.3418 61.2308 4.57557 20.732 61.3727 4.54228 
21.158 61.4006 4.53283 21.5807 61.3574 4.50481 22.3103 60.434 5.13388 
22.103 61.0612 4.6496 22.6075 60.628 4.85429 19.4281 60.4156 3.95155 
19.7642 60.8322 4.1077 20.1325 61.1739 4.27406 20.4814 61.3746 4.21708 
20.8982 61.5155 4.18921 21.3436 61.5631 4.17483 21.831 61.5008 4.17698 
22.3632 61.4178 4.11119 22.7602 61.0151 4.43177 19.5972 60.5598 3.73929 
19.9117 60.814 3.54467 20.208 61.1808 3.87197 20.6428 61.4456 3.81123 
21.0845 61.617 3.81144 21.5391 61.6833 3.79318 22.0117 61.6846 3.75754 
22.4523 61.6591 3.68342 23.2931 60.9278 4.28882 22.9787 61.4198 3.8457 
23.546 61.1207 3.98265 20.0609 60.7818 3.14418 20.426 61.1943 3.32185 
20.8666 61.5167 3.44909 21.2688 61.6705 3.40617 21.7253 61.7771 3.39194 
22.1915 61.81 3.3361 22.6923 61.7711 3.32554 23.1972 61.7301 3.28941 
23.5684 61.4584 3.59243 36.4083 59.7872 4.21946 36.1551 59.743 4.22538 
36.283 60.2153 3.93008 36.777 60.3138 3.80083 36.6973 59.8097 4.16609 
37.2075 60.2453 3.6976 37.1565 59.7897 4.05238 37.4072 59.9047 3.85099 
20.2542 60.9039 2.95682 20.5221 61.0639 2.81316 20.9967 61.4389 2.9292 
21.4732 61.713 3.06301 21.9008 61.8139 2.96631 22.3976 61.8766 2.90444 
22.9105 61.9037 2.87374 23.3403 61.8995 2.8875 23.7359 61.7387 3.12737 
35.8691 60.0019 4.03822 35.4467 59.9732 3.97948 35.6849 60.5394 3.667 
36.35 60.8477 3.47514 36.9465 60.7124 3.41573 37.3509 60.4674 3.37304 
37.5688 60.0118 3.59941 20.7769 61.0713 2.47001 21.2107 61.3274 2.32855 
21.5535 61.6426 2.64256 22.089 61.7898 2.49667 22.6338 61.9066 2.45265 
23.2627 61.9845 2.42223 23.6423 61.9384 2.72434 23.7772 62.0015 2.44504 
34.2431 60.2122 3.60116 33.8918 60.4663 3.38132 34.4095 60.8261 3.25831 
35.1873 61.0819 3.25449 34.9047 60.28 3.68765 35.8042 61.0993 3.3255 
37.2591 60.8892 3.00609 37.8215 59.8034 3.44738 37.6823 60.2779 3.09804 
37.9756 59.7166 3.18229 21.432 61.2178 1.90653 21.7477 61.5353 2.14165 
22.341 61.7105 1.95525 22.8627 61.9182 2.0957 23.2557 61.9617 1.95423 
24.1322 61.9945 2.36052 23.794 62.0077 2.02114 24.3248 62.0058 2.12054 
33.0649 60.922 2.83353 32.8391 61.1281 2.51273 33.516 61.3625 2.55868 
34.1575 61.3478 2.81525 33.6544 60.87 3.04223 34.6854 61.3504 2.97519 
37.6285 60.7822 2.53164 38.0409 59.9293 2.63989 21.8616 61.2529 1.59203 
22.2665 61.5096 1.57145 22.5608 61.6203 1.53659 22.8965 61.8126 1.71234 
23.4533 61.8586 1.55085 23.8954 61.9603 1.66414 24.6973 61.9768 2.06878 
24.3855 61.9593 1.72118 24.8985 61.9537 1.84348 26.8841 61.6417 2.1461 
26.6194 61.6975 2.09991 26.8493 61.6685 1.8768 27.4252 61.5387 1.89076 
27.23 61.5383 2.18124 27.9225 61.4081 1.83919 27.87 61.3477 2.2255 
28.3127 61.2851 2.02515 32.6936 61.2416 2.23355 32.5291 61.2548 1.9146 
33.0869 61.4498 2.13927 37.7352 60.9367 1.92822 37.9427 60.4207 2.17 
22.954 61.5524 1.26309 23.3488 61.6688 1.22397 23.6486 61.7003 1.19778 
23.9821 61.8384 1.38682 24.456 61.7793 1.29986 25.1871 61.9198 1.82414 
25.0582 61.8215 1.47896 25.8031 61.735 1.46218 25.5692 61.8556 1.82136 
26.5294 61.6213 1.44899 26.2164 61.7638 1.85358 27.0929 61.5856 1.62057 
27.5523 61.4564 1.58035 27.9937 61.3267 1.56209 28.7167 61.1623 1.95981 
28.3923 61.2526 1.7301 28.8279 61.0955 1.73156 32.5615 61.2524 1.47871 
37.7934 60.9927 1.37239 38.0205 60.4499 1.65508 24.0713 61.5276 0.974463 
24.7755 61.5376 0.994492 25.4261 61.5605 1.08016 26.054 61.5245 1.12547 
26.4359 61.4707 1.12727 26.7508 61.3972 1.13423 27.1434 61.432 1.32979 
27.7389 61.2115 1.272 28.3585 61.115 1.41683 28.2222 60.8921 1.11875 
28.6438 61.115 1.57681 32.8341 61.3389 1.16108 37.8106 61.0165 0.822161 
38.0545 60.4698 1.06435 27.1819 61.0996 0.974492 27.7705 60.8994 0.972165 
33.1505 61.4747 0.849496 33.1282 61.2277 0.450235 37.8064 61.0363 0.467135 
38.0266 60.5044 0.374619 33.4241 61.3856 0.213961 37.2978 61.66 -0.381952 
37.5647 61.3298 -0.107187 37.7757 61.029 0.16719 33.8734 61.4916 -0.388465 
33.5784 61.332 -0.151323 37.1871 61.5943 -0.844427 37.5273 61.2071 -0.622997 
33.6808 61.1682 -0.526632 34.0101 61.2985 -0.810624 36.3934 62.1434 -1.07322 
36.7667 61.9187 -1.02758 37.0762 61.4872 -1.33344 37.4105 61.1523 -1.14544 
34.6703 61.79 -1.08151 34.4294 61.52 -1.11718 36.0718 62.1381 -1.26637 
36.4181 61.937 -1.42097 36.7408 61.6816 -1.56025 36.9843 61.3897 -1.73384 
37.2825 61.0207 -1.6981 34.7889 61.6733 -1.31736 35.3849 61.7347 -1.74451 
34.9803 61.4627 -1.74249 35.6905 61.995 -1.48933 36.0655 61.8747 -1.68981 
36.4155 61.6942 -1.853 36.7353 61.4621 -1.99682 37.0102 61.1563 -2.05649 
36.8166 61.26 -2.24899 35.2472 61.477 -2.00422 35.4759 61.5769 -2.04371 
35.7273 61.729 -1.90747 36.0643 61.5795 -2.13885 36.4495 61.4459 -2.25421 
36.2009 61.3716 -2.43738 36.674 61.3626 -2.26179 35.6636 61.4263 -2.27983 
35.9328 61.2917 -2.50225 19.229 59.0407 5.32675 19.0989 59.2588 5.1703 
19.3449 59.6667 5.27213 19.7181 59.6925 5.49062 19.5065 59.0718 5.51012 
20.1424 59.7368 5.62756 19.9035 59.0918 5.71114 20.6304 59.7523 5.71883 
20.3787 59.1097 5.8681 21.1167 59.753 5.76977 20.9425 59.0023 6.00942 
21.5318 59.6561 5.81856 21.3772 59.2397 5.97833 21.8073 59.1403 5.9963 
18.9404 59.1288 5.00237 18.9051 59.3736 4.78531 19.0865 59.613 5.01002 
21.4522 60.1979 5.54589 22.0716 59.2842 5.91474 21.9176 59.7261 5.72349 
22.2719 59.3614 5.82112 18.8967 59.5397 4.51902 19.0697 59.8636 4.73815 
21.93 60.2793 5.39618 22.3998 59.7918 5.531 18.8951 59.5845 4.28384 
19.0771 59.9655 4.38219 23.0154 60.4962 4.79713 22.8929 59.9534 5.21807 
23.3077 60.0543 4.98096 18.9719 59.7299 4.13 19.163 59.98 3.98365 
23.1264 60.7545 4.54687 23.4449 60.4469 4.64504 37.0232 58.2328 5.00477 
36.8016 58.2493 5.01122 36.9244 58.7139 4.76596 37.3064 58.8259 4.60982 
37.3082 58.1799 4.93662 37.5692 58.4338 4.70218 19.6075 60.4203 3.45853 
19.3586 60.0798 3.60682 24.0101 61.081 3.84223 23.8943 60.5699 4.32626 
24.4259 60.6492 4.05438 36.5487 58.5821 4.84428 36.0916 58.5832 4.7828 
36.4473 59.241 4.49713 36.9827 59.3085 4.41842 37.3594 59.2779 4.30669 
37.7947 58.3283 4.58512 37.6479 58.8386 4.39891 37.8745 58.4887 4.40299 
19.498 60.0935 3.28702 19.7605 60.3418 3.11944 24.0301 61.4344 3.4641 
24.829 60.6886 3.89167 24.559 61.1492 3.58007 25.0287 60.883 3.67561 
35.5869 58.6787 4.65124 35.3046 59.0561 4.4217 35.7568 59.3613 4.35719 
37.6276 59.4318 3.9803 37.9252 58.7315 4.12283 20.2885 60.8015 2.73839 
20.0561 60.45 2.75844 24.2758 61.5961 3.16597 24.7209 61.4664 3.18636 
25.3056 60.8066 3.64972 25.2197 61.1596 3.34746 25.9076 61.0075 3.2822 
[...]
CELL_DATA 14232
FIELD FieldData 1
plab 7 14232 double
0.85142603433 0.0023827988739 0.0023827988739 0.0023827988739 0.0023827988739 0.1366599713 0.0023827988739 0.72773359349 0.00265672718 
0.00265672718 0.00265672718 0.00265672718 0.25898277061 0.00265672718 0.55132919241 0.0030772056534 0.0030772056534 0.0030772056534 
0.0030772056534 0.43328477933 0.0030772056534 0.38119810871 0.0031621931096 0.0031621931096 0.0031621931096 0.0031621931096 0.60299092574 
0.0031621931096 0.83358310106 0.0022172258111 0.0022172258111 0.0022172258111 0.0022172258111 0.15533076989 0.0022172258111 0.96793674971 
0.0015055177538 0.0015055177538 0.0015055177538 0.0015055177538 0.024535661517 0.0015055177538 0.99066001936 0.0010647299528 0.0010647299528 
0.0010647299528 0.0010647299528 0.0040163308758 0.0010647299528 0.99590368274 0.00068002023305 0.00068002023305 0.00068002023305 0.00068002023305 
0.00069621609015 0.00068002023305 0.99598697636 0.00066743542416 0.00066743542416 0.00066743542416 0.00066743542416 0.00067584652035 0.00066743542416 
0.95957663795 0.001337901156 0.001337901156 0.001337901156 0.001337901156 0.033733856273 0.001337901156 0.98771736224 0.001283819858 
0.001283819858 0.001283819858 0.001283819858 0.0058635384731 0.001283819858 0.96324009172 0.0018572234248 0.0018572234248 0.0018572234248 
0.0018572234248 0.027473791159 0.0018572234248 0.67453864533 0.0022261390385 0.0022261390385 0.0022261390385 0.0022261390385 0.31433065947 
0.0022261390385 0.65978724364 0.0016760348389 0.0016760348389 0.0016760348389 0.0016760348389 0.33183258216 0.0016760348389 0.18698457638 
0.0029476045957 0.0029476045957 0.0029476045957 0.0029476045957 0.79827740065 0.0029476045957 0.3002975672 0.0024516399213 0.0024516399213 
0.0024516399213 0.0024516399213 0.68744423319 0.0024516399213 0.81495946452 0.0030926699564 0.0030926699564 0.0030926699564 0.0030926699564 
0.1695771857 0.0030926699564 0.78016956894 0.0034895211694 0.0034895211694 0.0034895211694 0.0034895211694 0.20238282521 0.0034895211694 
0.96543817997 0.0019444297022 0.0019444297022 0.0019444297022 0.0019444297022 0.024839671523 0.0019444297022 0.99055194411 0.00110779943 
0.00110779943 0.00110779943 0.00110779943 0.0039090587383 0.00110779943 0.99648028843 0.00058364801079 0.00058364801079 0.00058364801079 
0.00058364801079 0.00060147151621 0.00058364801079 0.9969330775 0.00050964919941 0.00050964919941 0.00050964919941 0.00050964919941 0.00051867650227 
0.00050964919941 0.99344255142 0.00062329602385 0.00062329602385 0.00062329602385 0.00062329602385 0.0034409684635 0.00062329602385 0.97356072297 
0.00068342612004 0.00068342612004 0.00068342612004 0.00068342612004 0.023022146435 0.00068342612004 0.79048660139 0.00094918197835 0.00094918197835 
0.00094918197835 0.00094918197835 0.20476748871 0.00094918197835 0.64910599183 0.0011128998284 0.0011128998284 0.0011128998284 0.0011128998284 
0.34532950903 0.0011128998284 0.13719940713 0.0018197554265 0.0018197554265 0.0018197554265 0.0018197554265 0.85370181574 0.0018197554265 
0.26061597875 0.0015357532447 0.0015357532447 0.0015357532447 0.0015357532447 0.73170525502 0.0015357532447 0.80138168747 0.0041192612846 
0.0041192612846 0.0041192612846 0.0041192612846 0.1780220061 0.0041192612846 0.76185100755 0.004258133175 0.004258133175 0.004258133175 
0.004258133175 0.21685832657 0.004258133175 0.96205708224 0.0023297958563 0.0023297958563 0.0023297958563 0.0023297958563 0.026293938479 
0.0023297958563 0.99081729297 0.0011010272915 0.0011010272915 0.0011010272915 0.0011010272915 0.0036775705691 0.0011010272915 0.99730576305 
0.00044670697448 0.00044670697448 0.00044670697448 0.00044670697448 0.00046070207551 0.00044670697448 0.99753054706 0.00041065973874 0.00041065973874 
0.00041065973874 0.00041065973874 0.00041615425067 0.00041065973874 0.99419749827 0.00052265661903 0.00052265661903 0.00052265661903 0.00052265661903 
0.003189218634 0.00052265661903 0.96971564801 0.00066128272049 0.00066128272049 0.00066128272049 0.00066128272049 0.026977938383 0.00066128272049 
0.70042726645 0.00091070202088 0.00091070202088 0.00091070202088 0.00091070202088 0.29501922344 0.00091070202088 0.34171575837 0.0011026829765 
0.0011026829765 0.0011026829765 0.0011026829765 0.65277082675 0.0011026829765 0.050359427003 0.00111251775 0.00111251775 0.00111251775 
0.00111251775 0.94407798425 0.00111251775 0.058171269881 0.00092795527725 0.00092795527725 0.00092795527725 0.00092795527725 0.93718895373 
0.00092795527725 0.7854288603 0.0039419011682 0.0039419011682 0.0039419011682 0.0039419011682 0.19486163385 0.0039419011682 0.99083126089 
0.0010992015407 0.0010992015407 0.0010992015407 0.0010992015407 0.003672731405 0.0010992015407 0.97816283148 0.0017211613605 0.0017211613605 
0.0017211613605 0.0017211613605 0.01323136172 0.0017211613605 0.89867379579 0.0030189225312 0.0030189225312 0.0030189225312 0.0030189225312 
0.086231591558 0.0030189225312 0.99714498897 0.00047333571274 0.00047333571274 0.00047333571274 0.00047333571274 0.00048833246557 0.00047333571274 
0.99722939318 0.0004514399874 0.0004514399874 0.0004514399874 0.0004514399874 0.00051340688201 0.0004514399874 0.99369014946 0.00050605782071 
0.00050605782071 0.00050605782071 0.00050605782071 0.0037795614316 0.00050605782071 0.95617185304 0.00070486045233 0.00070486045233 0.00070486045233 
0.00070486045233 0.040303844695 0.00070486045233 0.41484744442 0.0010162987013 0.0010162987013 0.0010162987013 0.0010162987013 0.58007106208 
0.0010162987013 0.17141884248 0.00081409894327 0.00081409894327 0.00081409894327 0.00081409894327 0.8245106628 0.00081409894327 0.35733351657 
0.00083017914098 0.00083017914098 0.00083017914098 0.00083017914098 0.63851558772 0.00083017914098 0.032253377442 0.00063924073636 0.00063924073636 
0.00063924073636 0.00063924073636 0.96455041888 0.00063924073636 0.99411001846 0.00079575649058 0.00079575649058 0.00079575649058 0.00079575649058 
0.0019111990907 0.00079575649058 0.99650937103 0.00045006740902 0.00045006740902 0.00045006740902 0.00045006740902 0.001240291928 0.00045006740902 
0.99704845637 0.00047986955139 0.00047986955139 0.00047986955139 0.00047986955139 0.0005521958716 0.00047986955139 0.87981775106 0.00080963516558 
0.00080963516558 0.00080963516558 0.00080963516558 0.11613407311 0.00080963516558 0.98435228844 0.00060528901475 0.00060528901475 0.00060528901475 
0.00060528901475 0.012621266485 0.00060528901475 0.58132466762 0.00083202400471 0.00083202400471 0.00083202400471 0.00083202400471 0.41451521235 
0.00083202400471 0.97465648681 0.00093269692892 0.00093269692892 0.00093269692892 0.00093269692892 0.020680028541 0.00093269692892 0.90351450249 
0.0011520490983 0.0011520490983 0.0011520490983 0.0011520490983 0.090725252019 0.0011520490983 0.81553560628 0.0010960050149 0.0010960050149 
0.0010960050149 0.0010960050149 0.17898436864 0.0010960050149 0.5619834242 0.0016184607609 0.0016184607609 0.0016184607609 0.0016184607609 
0.42992427199 0.0016184607609 0.99535932381 0.00077344603102 0.00077344603102 0.00077344603102 0.00077344603102 0.00077344603102 0.00077344603102 
0.99587986335 0.00068668944229 0.00068668944229 0.00068668944229 0.00068668944229 0.00068668944229 0.00068668944229 0.99620711178 0.00063214803709 
0.00063214803709 0.00063214803709 0.00063214803709 0.00063214803709 0.00063214803709 0.97300896932 0.0009357376186 0.0009357376186 0.0009357376186 
0.0009357376186 0.022312342584 0.0009357376186 0.99313679103 0.00071274987842 0.00071274987842 0.00071274987842 0.00071274987842 0.0032994595765 
0.00071274987842 0.99040751138 0.00076290636731 0.00076290636731 0.00076290636731 0.00076290636731 0.0057779567835 0.00076290636731 0.84246299045 
0.0010519404108 0.0010519404108 0.0010519404108 0.0010519404108 0.15227730749 0.0010519404108 0.76620754299 0.001083608381 0.001083608381 
0.001083608381 0.001083608381 0.22837441511 0.001083608381 0.19541028428 0.0023018533686 0.0023018533686 0.0023018533686 0.0023018533686 
0.79308044888 0.0023018533686 0.10319187605 0.0022998489095 0.0022998489095 0.0022998489095 0.0022998489095 0.8853088794 0.0022998489095 
0.011242373671 0.0018346038821 0.0018346038821 0.0018346038821 0.0018346038821 0.97958460692 0.0018346038821 0.0022085212034 0.0016322049344 
0.0016322049344 0.0016322049344 0.0016322049344 0.98963045412 0.0016322049344 0.52332584086 0.0023336046063 0.0023336046063 0.0023336046063 
0.0023336046063 0.46500613611 0.0023336046063 0.81900869836 0.0010446875543 0.0010446875543 0.0010446875543 0.0010446875543 0.17576786387 
0.0010446875543 0.85673311799 0.00086173276377 0.00086173276377 0.00086173276377 0.00086173276377 0.13895821819 0.00086173276377 0.97460504696 
0.00075709682218 0.00075709682218 0.00075709682218 0.00075709682218 0.021609468929 0.00075709682218 0.99228054506 0.00073979863917 0.00073979863917 
0.00073979863917 0.00073979863917 0.0040204617481 0.00073979863917 0.99603620331 0.00065933751366 0.00065933751366 0.00065933751366 0.00065933751366 
0.00066710912007 0.00065933751366 0.99554308697 0.00074038762279 0.00074038762279 0.00074038762279 0.00074038762279 0.00075497492007 0.00074038762279 
0.99520876567 0.00079749924336 0.00079749924336 0.00079749924336 0.00079749924336 0.00080373811296 0.00079749924336 0.99618489267 0.00063585122153 
0.00063585122153 0.00063585122153 0.00063585122153 0.00063585122153 0.00063585122153 0.99252905854 0.00090678765819 0.00090678765819 0.00090678765819 
0.00090678765819 0.0029370031691 0.00090678765819 0.97454876592 0.0014496052262 0.0014496052262 0.0014496052262 0.0014496052262 0.018203207945 
0.0014496052262 0.95136988813 0.0018459912866 0.0018459912866 0.0018459912866 0.0018459912866 0.039400155437 0.0018459912866 0.94970445057 
0.0015078136832 0.0015078136832 0.0015078136832 0.0015078136832 0.042756481015 0.0015078136832 0.44948196558 0.0019022085199 0.0019022085199 
0.0019022085199 0.0019022085199 0.54100699182 0.0019022085199 0.40586291087 0.0025035819546 0.0025035819546 0.0025035819546 0.0025035819546 
0.58161917936 0.0025035819546 0.21338827519 0.002770081776 0.002770081776 0.002770081776 0.002770081776 0.77276131593 0.002770081776 
0.056929732703 0.0020067322559 0.0020067322559 0.0020067322559 0.0020067322559 0.93303660602 0.0020067322559 0.0046944457109 0.0014081743809 
0.0014081743809 0.0014081743809 0.0014081743809 0.98826468238 0.0014081743809 0.001421066769 0.0013181349725 0.0013181349725 0.0013181349725 
0.0013181349725 0.99198825837 0.0013181349725 0.0012042142466 0.0011093245409 0.0011093245409 0.0011093245409 0.0011093245409 0.99324916305 
0.0011093245409 0.0019327794774 0.0019327794774 0.0019327794774 0.0019327794774 0.0022706597927 0.98806544282 0.0019327794774 0.13036309697 
0.003023254211 0.003023254211 0.003023254211 0.003137202476 0.85440668371 0.003023254211 0.021850651075 0.0026571324207 0.0026571324207 
0.0026571324207 0.0029782746844 0.96454254456 0.0026571324207 0.08217542103 0.0031637547533 0.0031637547533 0.0031637547533 0.0034173265487 
0.90175223341 0.0031637547533 0.70992151677 0.0015036735875 0.0015036735875 0.0015036735875 0.0015036735875 0.28256011529 0.0015036735875 
0.71630627563 0.0019111554518 0.0019111554518 0.0019111554518 0.0019111554518 0.27413794711 0.0019111554518 0.85104342715 0.0014007948237 
0.0014007948237 0.0014007948237 0.0014007948237 0.14195259874 0.0014007948237 0.97323367551 0.00093673729732 0.00093673729732 0.00093673729732 
0.00093673729732 0.022082637999 0.00093673729732 0.99262262691 0.0007058288555 0.0007058288555 0.0007058288555 0.0007058288555 0.0038482288159 
0.0007058288555 0.99562226181 0.00072683771878 0.00072683771878 0.00072683771878 0.00072683771878 0.00074354959308 0.00072683771878 0.99592085957 
0.00067852377997 0.00067852377997 0.00067852377997 0.00067852377997 0.00068652153476 0.00067852377997 0.99164884104 0.0010136243097 0.0010136243097 
0.0010136243097 0.0010136243097 0.0032830374156 0.0010136243097 0.091767355281 0.00226378883 0.00226378883 0.00226378883 0.00226378883 
0.89691370057 0.00226378883 0.02121941363 0.0017256768795 0.0017256768795 0.0017256768795 0.0017256768795 0.97015220197 0.0017256768795 
0.0054051519739 0.0013504974883 0.0013504974883 0.0013504974883 0.0013504974883 0.98784236058 0.0013504974883 0.0013721052257 0.0010528245406 
0.0010528245406 0.0010528245406 0.0010528245406 0.99336377207 0.0010528245406 0.00086353830501 0.00085761243544 0.00085761243544 0.00085761243544 
0.00085761243544 0.99484839952 0.00085761243544 0.00085414207446 0.00084828068475 0.00084828068475 0.00084828068475 0.00084828068475 0.9949044545 
0.00084828068475 0.0014203848477 0.0014203848477 0.0014203848477 0.0014203848477 0.0015448706597 0.9913532051 0.0014203848477 0.0010205891921 
0.0010205891921 0.0010205891921 0.0010205891921 0.0010697176846 0.99382733635 0.0010205891921 0.0095462693115 0.0018205594402 0.0018205594402 
0.0018205594402 0.0018891774178 0.98128231551 0.0018205594402 0.044120549701 0.001945033131 0.001945033131 0.001945033131 0.001945033131 
0.94615428464 0.001945033131 0.5600610019 0.0034497980235 0.0034497980235 0.0034497980235 0.0034497980235 0.42269000799 0.0034497980235 
0.42580268732 0.0028753933496 0.0028753933496 0.0028753933496 0.0028753933496 0.55982034593 0.0028753933496 0.01795180195 0.0015156738102 
0.0015156738102 0.0015156738102 0.0015156738102 0.974469829 0.0015156738102 0.0052307938771 0.0011050390301 0.0011050390301 0.0011050390301 
0.0011050390301 0.98924401097 0.0011050390301 0.0015745172136 0.0009839400779 0.0009839400779 0.0009839400779 0.0009839400779 0.9935057824 
0.0009839400779 0.00086513214297 0.00069975265551 0.00069975265551 0.00069975265551 0.00069975265551 0.99563610458 0.00069975265551 0.00064791441163 
0.00064791441163 0.00064791441163 0.00064791441163 0.00064791441163 0.99611251353 0.00064791441163 0.00057181010325 0.00057181010325 0.00057181010325 
0.00057181010325 0.00057181010325 0.99656913938 0.00057181010325 0.00073640187637 0.00073640187637 0.00073640187637 0.00073640187637 0.00073640187637 
0.99558158874 0.00073640187637 0.028695261048 0.001683646602 0.001683646602 0.001683646602 0.001683646602 0.96288650594 0.001683646602 
0.005083231856 0.0012902257489 0.0012902257489 0.0012902257489 0.0012902257489 0.9884656394 0.0012902257489 0.00084925708516 0.00084925708516 
0.00084925708516 0.00084925708516 0.00084925708516 0.99490445749 0.00084925708516 0.5094512592 0.0041055537958 0.0041055537958 0.0041055537958 
0.0041055537958 0.47002097182 0.0041055537958 0.31787966453 0.0032444724475 0.0032444724475 0.0032444724475 0.0032444724475 0.66589797323 
0.0032444724475 0.0068318578408 0.00084999732595 0.00084999732595 0.00084999732595 0.00084999732595 0.98891815553 0.00084999732595 0.0018931001004 
0.00069672842258 0.00069672842258 0.00069672842258 0.00069672842258 0.99462325779 0.00069672842258 0.00079553482931 0.00064345963086 0.00064345963086 
0.00064345963086 0.00064345963086 0.99598716702 0.00064345963086 0.00052157324572 0.00052157324572 0.00052157324572 0.00052157324572 0.00052157324572 
0.99687056053 0.00052157324572 0.00044073142752 0.00044073142752 0.00044073142752 0.00044073142752 0.00044073142752 0.99735561143 0.00044073142752 
0.00043721164093 0.00043721164093 0.00043721164093 0.00043721164093 0.00043721164093 0.99737673015 0.00043721164093 0.029559916434 0.0016364224684 
0.0016364224684 0.0016364224684 0.0016364224684 0.96225797122 0.0016364224684 0.021645959249 0.0013887196414 0.0013887196414 0.0013887196414 
0.0013887196414 0.97141044254 0.0013887196414 0.32571398136 0.0025104771029 0.0025104771029 0.0025104771029 0.0025104771029 0.66173363313 
0.0025104771029 0.59243481524 0.0032702748801 0.0032702748801 0.0032702748801 0.0032702748801 0.39121381035 0.0032702748801 0.54338518148 
0.0039321183438 0.0039321183438 0.0039321183438 0.0039321183438 0.4369542268 0.0039321183438 0.8968038512 0.0023826993355 0.0023826993355 
0.0023826993355 0.0023826993355 0.091282652123 0.0023826993355 0.18126300379 0.00068478691937 0.00068478691937 0.00068478691937 0.00068478691937 
0.81531306161 0.00068478691937 0.0033379199738 0.00054900027925 0.00054900027925 0.00054900027925 0.00054900027925 0.99391707863 0.00054900027925 
0.007887880281 0.00063634625009 0.00063634625009 0.00063634625009 0.00063634625009 0.98893038847 0.00063634625009 0.041394855112 0.00059588160601 
0.00059588160601 0.00059588160601 0.00059588160601 0.95562573686 0.00059588160601 0.00052339998272 0.0004855399776 0.0004855399776 0.0004855399776 
0.0004855399776 0.99704890013 0.0004855399776 0.00042403730019 0.00039336466954 0.00039336466954 0.00039336466954 0.00039336466954 0.99760913935 
0.00039336466954 0.00042200035354 0.0003914750649 0.0003914750649 0.0003914750649 0.0003914750649 0.99762062432 0.0003914750649 0.00038096804074 
0.00038096804074 0.00038096804074 0.00038096804074 0.00038096804074 0.99771419176 0.00038096804074 0.10227986555 0.0014048437042 0.0014048437042 
0.0014048437042 0.0014048437042 0.89069591593 0.0014048437042 0.62625308657 0.0017493334564 0.0017493334564 0.0017493334564 0.0017493334564 
0.36500024615 0.0017493334564 0.4811632948 0.0012287940295 0.0012287940295 0.0012287940295 0.0012287940295 0.51269273505 0.0012287940295 
0.20793152882 0.0012358867685 0.0012358867685 0.0012358867685 0.0012358867685 0.78588903734 0.0012358867685 0.96217957742 0.0010016823045 
0.0010016823045 0.0010016823045 0.0010016823045 0.032812011057 0.0010016823045 0.99034984087 0.00089758386743 0.00089758386743 0.00089758386743 
0.00089758386743 0.0051622397974 0.00089758386743 0.97965320788 0.0013344269261 0.0013344269261 0.0013344269261 0.0013344269261 0.013674657494 
0.0013344269261 0.99055693575 0.00051036668463 0.00051036668463 0.00051036668463 0.00051036668463 0.0068912308262 0.00051036668463 0.99336389593 
0.00054186242377 0.00054186242377 0.00054186242377 0.00054186242377 0.0039267919504 0.00054186242377 0.86037859794 0.00088344688123 0.00088344688123 
0.00088344688123 0.00088344688123 0.13520416766 0.00088344688123 0.91807500909 0.00071860675998 0.00071860675998 0.00071860675998 0.00071860675998 
0.078331957106 0.00071860675998 0.18787175381 0.00072153555441 0.00072153555441 0.00072153555441 0.00072153555441 0.80852056841 0.00072153555441 
0.32005169623 0.00082439893381 0.00082439893381 0.00082439893381 0.00082439893381 0.6758263091 0.00082439893381 0.53853684995 0.0008600565132 
0.0008600565132 0.0008600565132 0.0008600565132 0.45716286748 0.0008600565132 0.018339807901 0.0005370698554 0.0005370698554 0.0005370698554 
0.0005370698554 0.97897484282 0.0005370698554 0.0042615839816 0.00048691930551 0.00048691930551 0.00048691930551 0.00048691930551 0.99330381949 
0.00048691930551 0.00044493421882 0.00041275001485 0.00041275001485 0.00041275001485 0.00041275001485 0.99749131571 0.00041275001485 0.0006548756656 
0.00042024773468 0.00042024773468 0.00042024773468 0.00042024773468 0.99724388566 0.00042024773468 0.69317247796 0.0008965201083 0.0008965201083 
0.0008965201083 0.0008965201083 0.3023449215 0.0008965201083 0.57987073018 0.00096247434154 0.00096247434154 0.00096247434154 0.00096247434154 
0.41531689811 0.00096247434154 0.95594014658 0.00078954272017 0.00078954272017 0.00078954272017 0.00078954272017 0.040112139815 0.00078954272017 
0.98052879035 0.00076753251054 0.00076753251054 0.00076753251054 0.00076753251054 0.015633547097 0.00076753251054 0.98736580735 0.0005863240517 
0.0005863240517 0.0005863240517 0.0005863240517 0.0097025723959 0.0005863240517 0.94248890097 0.00075662116993 0.00075662116993 0.00075662116993 
0.00075662116993 0.053727993177 0.00075662116993 0.77709187783 0.00087057495467 0.00087057495467 0.00087057495467 0.00087057495467 0.2185552474 
0.00087057495467 0.6699824184 0.001076083678 0.001076083678 0.001076083678 0.001076083678 0.32463716321 0.001076083678 0.38002917083 
0.00098895908708 0.00098895908708 0.00098895908708 0.00098895908708 0.61502603373 0.00098895908708 0.23337256176 0.00088591554577 0.00088591554577 
0.00088591554577 0.00088591554577 0.76219786051 0.00088591554577 0.41680671386 0.0011193287938 0.0011193287938 0.0011193287938 0.0011193287938 